 vasp.5.4.1 24Jun15 (build Sep 09 2015 15:37:21) complex                        
  
 executed on           IFC91_ompi date 2016.06.04  21:32:35
 running on    1 total cores
 distrk:  each k-point on    1 cores,    1 groups
 distr:  one band on NCORES_PER_BAND=   1 cores,    1 groups


--------------------------------------------------------------------------------------------------------


 INCAR:
 POTCAR:    PAW_PBE C 08Apr2002                   
 POTCAR:    PAW_PBE H 15Jun2001                   
 POTCAR:    PAW_PBE O 08Apr2002                   
 POTCAR:    PAW_PBE C 08Apr2002                   
   VRHFIN =C: s2p2                                                              
   LEXCH  = PE                                                                  
   EATOM  =   147.1560 eV,   10.8157 Ry                                         
                                                                                
   TITEL  = PAW_PBE C 08Apr2002                                                 
   LULTRA =        F    use ultrasoft PP ?                                      
   IUNSCR =        1    unscreen: 0-lin 1-nonlin 2-no                           
   RPACOR =    1.200    partial core radius                                     
   POMASS =   12.011; ZVAL   =    4.000    mass and valenz                      
   RCORE  =    1.500    outmost cutoff radius                                   
   RWIGS  =    1.630; RWIGS  =    0.863    wigner-seitz radius (au A)           
   ENMAX  =  400.000; ENMIN  =  300.000 eV                                      
   ICORE  =        2    local potential                                         
   LCOR   =        T    correct aug charges                                     
   LPAW   =        T    paw PP                                                  
   EAUG   =  644.873                                                            
   DEXC   =    0.000                                                            
   RMAX   =    1.529    core radius for proj-oper                               
   RAUG   =    1.300    factor for augmentation sphere                          
   RDEP   =    1.501    radius for radial grids                                 
   RDEPT  =    1.300    core radius for aug-charge                              
                                                                                
   Atomic configuration                                                         
    4 entries                                                                   
     n  l   j            E        occ.                                          
     1  0  0.50      -273.3789   2.0000                                         
     2  0  0.50       -13.7508   2.0000                                         
     2  1  0.50        -5.2854   2.0000                                         
     3  2  1.50        -5.4423   0.0000                                         
   Description                                                                  
     l       E           TYP  RCUT    TYP  RCUT                                 
     0    -13.7508458     23  1.200                                             
     0     -8.2022199     23  1.200                                             
     1     -5.2854383     23  1.500                                             
     1     34.0145650     23  1.500                                             
     2     -5.4423304      7  1.500                                             
  local pseudopotential read in
  partial core-charges read in
  partial kinetic energy density read in
  atomic valenz-charges read in
  non local Contribution for L=           0  read in
    real space projection operators read in
  non local Contribution for L=           0  read in
    real space projection operators read in
  non local Contribution for L=           1  read in
    real space projection operators read in
  non local Contribution for L=           1  read in
    real space projection operators read in
    PAW grid and wavefunctions read in
 
   number of l-projection  operators is LMAX  =           4
   number of lm-projection operators is LMMAX =           8
 
 POTCAR:    PAW_PBE H 15Jun2001                   
   VRHFIN =H: ultrasoft test                                                    
   LEXCH  = PE                                                                  
   EATOM  =    12.4884 eV,    0.9179 Ry                                         
                                                                                
   TITEL  = PAW_PBE H 15Jun2001                                                 
   LULTRA =        F    use ultrasoft PP ?                                      
   IUNSCR =        0    unscreen: 0-lin 1-nonlin 2-no                           
   RPACOR =    0.000    partial core radius                                     
   POMASS =    1.000; ZVAL   =    1.000    mass and valenz                      
   RCORE  =    1.100    outmost cutoff radius                                   
   RWIGS  =    0.700; RWIGS  =    0.370    wigner-seitz radius (au A)           
   ENMAX  =  250.000; ENMIN  =  200.000 eV                                      
   RCLOC  =    0.701    cutoff for local pot                                    
   LCOR   =        T    correct aug charges                                     
   LPAW   =        T    paw PP                                                  
   EAUG   =  400.000                                                            
   RMAX   =    1.123    core radius for proj-oper                               
   RAUG   =    1.200    factor for augmentation sphere                          
   RDEP   =    1.112    radius for radial grids                                 
   RDEPT  =    0.926    core radius for aug-charge                              
                                                                                
   Atomic configuration                                                         
    2 entries                                                                   
     n  l   j            E        occ.                                          
     1  0  0.50        -6.4927   1.0000                                         
     2  1  0.50        -3.4015   0.0000                                         
   Description                                                                  
     l       E           TYP  RCUT    TYP  RCUT                                 
     0     -6.4927494     23  1.100                                             
     0      6.8029130     23  1.100                                             
     1     -4.0817478     23  1.100                                             
  local pseudopotential read in
  atomic valenz-charges read in
  non local Contribution for L=           0  read in
    real space projection operators read in
  non local Contribution for L=           0  read in
    real space projection operators read in
  non local Contribution for L=           1  read in
    real space projection operators read in
    PAW grid and wavefunctions read in
 
   number of l-projection  operators is LMAX  =           3
   number of lm-projection operators is LMMAX =           5
 
 POTCAR:    PAW_PBE O 08Apr2002                   
   VRHFIN =O: s2p4                                                              
   LEXCH  = PE                                                                  
   EATOM  =   432.3788 eV,   31.7789 Ry                                         
                                                                                
   TITEL  = PAW_PBE O 08Apr2002                                                 
   LULTRA =        F    use ultrasoft PP ?                                      
   IUNSCR =        1    unscreen: 0-lin 1-nonlin 2-no                           
   RPACOR =    1.200    partial core radius                                     
   POMASS =   16.000; ZVAL   =    6.000    mass and valenz                      
   RCORE  =    1.520    outmost cutoff radius                                   
   RWIGS  =    1.550; RWIGS  =    0.820    wigner-seitz radius (au A)           
   ENMAX  =  400.000; ENMIN  =  300.000 eV                                      
   ICORE  =        2    local potential                                         
   LCOR   =        T    correct aug charges                                     
   LPAW   =        T    paw PP                                                  
   EAUG   =  605.392                                                            
   DEXC   =    0.000                                                            
   RMAX   =    1.553    core radius for proj-oper                               
   RAUG   =    1.300    factor for augmentation sphere                          
   RDEP   =    1.550    radius for radial grids                                 
   RDEPT  =    1.329    core radius for aug-charge                              
                                                                                
   Atomic configuration                                                         
    4 entries                                                                   
     n  l   j            E        occ.                                          
     1  0  0.50      -514.6923   2.0000                                         
     2  0  0.50       -23.9615   2.0000                                         
     2  1  0.50        -9.0305   4.0000                                         
     3  2  1.50        -9.5241   0.0000                                         
   Description                                                                  
     l       E           TYP  RCUT    TYP  RCUT                                 
     0    -23.9615318     23  1.200                                             
     0     -9.5240782     23  1.200                                             
     1     -9.0304911     23  1.520                                             
     1      8.1634956     23  1.520                                             
     2     -9.5240782      7  1.500                                             
  local pseudopotential read in
  partial core-charges read in
  partial kinetic energy density read in
  kinetic energy density of atom read in
  atomic valenz-charges read in
  non local Contribution for L=           0  read in
    real space projection operators read in
  non local Contribution for L=           0  read in
    real space projection operators read in
  non local Contribution for L=           1  read in
    real space projection operators read in
  non local Contribution for L=           1  read in
    real space projection operators read in
    PAW grid and wavefunctions read in
 
   number of l-projection  operators is LMAX  =           4
   number of lm-projection operators is LMMAX =           8
 
  PAW_PBE C 08Apr2002                   :
 energy of atom  1       EATOM= -147.1560
 kinetic energy error for atom=    0.0076 (will be added to EATOM!!)
  PAW_PBE H 15Jun2001                   :
 energy of atom  2       EATOM=  -12.4884
 kinetic energy error for atom=    0.0020 (will be added to EATOM!!)
  PAW_PBE O 08Apr2002                   :
 energy of atom  3       EATOM= -432.3788
 kinetic energy error for atom=    0.0224 (will be added to EATOM!!)
 
 
 POSCAR: Methanol                                
  positions in direct lattice
  velocities in cartesian coordinates
 exchange correlation table for  LEXCH =        8
   RHO(1)=    0.500       N(1)  =     2000
   RHO(2)=  100.500       N(2)  =     4000
 


--------------------------------------------------------------------------------------------------------


 ion  position               nearest neighbor table
   1  0.933  0.011  1.000-   2 1.10   4 1.10   3 1.10   6 1.43
   2  0.949  0.970  0.999-   1 1.10
   3  0.948  0.030  0.037-   1 1.10
   4  0.889  0.009  0.001-   1 1.10
   5  0.940  0.073  0.952-   6 0.97
   6  0.953  0.037  0.953-   5 0.97   1 1.43
 

IMPORTANT INFORMATION: All symmetrisations will be switched off!
NOSYMM: (Re-)initialisation of all symmetry stuff for point group C_1.

 
 
 KPOINTS: Gesamt                                  

Automatic generation of k-mesh.
Space group operators:
 irot       det(A)        alpha          n_x          n_y          n_z        tau_x        tau_y        tau_z
    1     1.000000     0.000000     1.000000     0.000000     0.000000     0.000000     0.000000     0.000000
 
 Subroutine IBZKPT returns following result:
 ===========================================
 
 Found      1 irreducible k-points:
 
 Following reciprocal coordinates:
            Coordinates               Weight
  0.000000  0.000000  0.000000      1.000000
 
 Following cartesian coordinates:
            Coordinates               Weight
  0.000000  0.000000  0.000000      1.000000
 
 
 Subroutine IBZKPT_HF returns following result:
 ==============================================
 
 Found      1 k-points in 1st BZ
 the following      1 k-points will be used (e.g. in the exchange kernel)
 Following reciprocal coordinates:   # in IRBZ
  0.000000  0.000000  0.000000    1.00000000   1 t-inv F


--------------------------------------------------------------------------------------------------------




 Dimension of arrays:
   k-points           NKPTS =      1   k-points in BZ     NKDIM =      1   number of bands    NBANDS=     11
   number of dos      NEDOS =    301   number of ions     NIONS =      6
   non local maximal  LDIM  =      4   non local SUM 2l+1 LMDIM =      8
   total plane-waves  NPLWV = ******
   max r-space proj   IRMAX =      1   max aug-charges    IRDMAX=  47210
   dimension x,y,z NGX =   192 NGY =  192 NGZ =  192
   dimension x,y,z NGXF=   384 NGYF=  384 NGZF=  384
   support grid    NGXF=   768 NGYF=  768 NGZF=  768
   ions per type =               1   4   1
 NGX,Y,Z   is equivalent  to a cutoff of  12.77, 12.77, 12.77 a.u.
 NGXF,Y,Z  is equivalent  to a cutoff of  25.54, 25.54, 25.54 a.u.


 I would recommend the setting:
   dimension x,y,z NGX =   182 NGY =  182 NGZ =  182
 SYSTEM =  unknown system                          
 POSCAR =  Methanol                                

 Startparameter for this run:
   NWRITE =      3    write-flag & timer
   PREC   = accura    normal or accurate (medium, high low for compatibility)
   ISTART =      0    job   : 0-new  1-cont  2-samecut
   ICHARG =      2    charge: 1-file 2-atom 10-const
   ISPIN  =      1    spin polarized calculation?
   LNONCOLLINEAR =      F non collinear calculations
   LSORBIT =      F    spin-orbit coupling
   INIWAV =      1    electr: 0-lowe 1-rand  2-diag
   LASPH  =      F    aspherical Exc in radial PAW
   METAGGA=      F    non-selfconsistent MetaGGA calc.

 Electronic Relaxation 1
   ENCUT  =  500.0 eV  36.75 Ry    6.06 a.u.  45.58 45.58 45.58*2*pi/ulx,y,z
   ENINI  =  500.0     initial cutoff
   ENAUG  =  644.9 eV  augmentation charge cutoff
   NELM   =     60;   NELMIN=  2; NELMDL=  0     # of ELM steps 
   EDIFF  = 0.1E-07   stopping-criterion for ELM
   LREAL  =      F    real-space projection
   NLSPLINE    = F    spline interpolate recip. space projectors
   LCOMPAT=      F    compatible to vasp.4.4
   GGA_COMPAT  = T    GGA compatible to vasp.4.4-vasp.4.6
   LMAXPAW     = -100 max onsite density
   LMAXMIX     =    2 max onsite mixed and CHGCAR
   VOSKOWN=      0    Vosko Wilk Nusair interpolation
   ROPT   =    0.00000   0.00000   0.00000
 Ionic relaxation
   EDIFFG = 0.1E-05   stopping-criterion for IOM
   NSW    =      1    number of steps for IOM
   NBLOCK =      1;   KBLOCK =      1    inner block; outer block 
   IBRION =      7    ionic relax: 0-MD 1-quasi-New 2-CG
   NFREE  =      0    steps in history (QN), initial steepest desc. (CG)
   ISIF   =      2    stress and relaxation
   IWAVPR =     11    prediction:  0-non 1-charg 2-wave 3-comb
   ISYM   =      0    0-nonsym 1-usesym 2-fastsym
   LCORR  =      T    Harris-Foulkes like correction to forces

   POTIM  = 0.5000    time-step for ionic-motion
   TEIN   =    0.0    initial temperature
   TEBEG  =    0.0;   TEEND  =   0.0 temperature during run
   SMASS  =  -3.00    Nose mass-parameter (am)
   estimated Nose-frequenzy (Omega)   =  0.10E-29 period in steps =****** mass=  -0.143E-25a.u.
   SCALEE = 1.0000    scale energy and forces
   NPACO  =    256;   APACO  = 16.0  distance and # of slots for P.C.
   PSTRESS=    0.0 pullay stress

  Mass of Ions in am
   POMASS =  12.01  1.00 16.00
  Ionic Valenz
   ZVAL   =   4.00  1.00  6.00
  Atomic Wigner-Seitz radii
   RWIGS  =  -1.00 -1.00 -1.00
  virtual crystal weights 
   VCA    =   1.00  1.00  1.00
   NELECT =      14.0000    total number of electrons
   NUPDOWN=      -1.0000    fix difference up-down

 DOS related values:
   EMIN   =  10.00;   EMAX   =-10.00  energy-range for DOS
   EFERMI =   0.00
   ISMEAR =     0;   SIGMA  =   0.10  broadening in eV -4-tet -1-fermi 0-gaus

 Electronic relaxation 2 (details)
   IALGO  =     38    algorithm
   LDIAG  =      T    sub-space diagonalisation (order eigenvalues)
   LSUBROT=      F    optimize rotation matrix (better conditioning)
   TURBO    =      0    0=normal 1=particle mesh
   IRESTART =      0    0=no restart 2=restart with 2 vectors
   NREBOOT  =      0    no. of reboots
   NMIN     =      0    reboot dimension
   EREF     =   0.00    reference energy to select bands
   IMIX   =      4    mixing-type and parameters
     AMIX     =   0.40;   BMIX     =  1.00
     AMIX_MAG =   1.60;   BMIX_MAG =  1.00
     AMIN     =   0.10
     WC   =   100.;   INIMIX=   1;  MIXPRE=   1;  MAXMIX= -45

 Intra band minimization:
   WEIMIN = 0.0010     energy-eigenvalue tresh-hold
   EBREAK =  0.23E-09  absolut break condition
   DEPER  =   0.30     relativ break condition  

   TIME   =   0.40     timestep for ELM

  volume/ion in A,a.u.               =    2604.17     17573.78
  Fermi-wavevector in a.u.,A,eV,Ry     =   0.157826  0.298247  0.338907  0.024909
  Thomas-Fermi vector in A             =   0.847116
 
 Write flags
   LWAVE  =      F    write WAVECAR
   LCHARG =      F    write CHGCAR
   LVTOT  =      F    write LOCPOT, total local potential
   LVHAR  =      F    write LOCPOT, Hartree potential only
   LELF   =      F    write electronic localiz. function (ELF)
   LORBIT =      0    0 simple, 1 ext, 2 COOP (PROOUT)


 Dipole corrections
   LMONO  =      F    monopole corrections only (constant potential shift)
   LDIPOL =      F    correct potential (dipole corrections)
   IDIPOL =      0    1-x, 2-y, 3-z, 4-all directions 
   EPSILON=  1.0000000 bulk dielectric constant

 Exchange correlation treatment:
   GGA     =    --    GGA type
   LEXCH   =     8    internal setting for exchange type
   VOSKOWN=      0    Vosko Wilk Nusair interpolation
   LHFCALC =     F    Hartree Fock is set to
   LHFONE  =     F    Hartree Fock one center treatment
   AEXX    =    0.0000 exact exchange contribution

 Linear response parameters
   LEPSILON=     T    determine dielectric tensor
   LRPA    =     F    only Hartree local field effects (RPA)
   LNABLA  =     F    use nabla operator in PAW spheres
   LVEL    =     F    velocity operator in full k-point grid
   LINTERFAST=   F  fast interpolation
   KINTER  =     0    interpolate to denser k-point grid
   CSHIFT  =0.1000    complex shift for real part using Kramers Kronig
   OMEGAMAX=  -1.0    maximum frequency
   DEG_THRESHOLD= 0.2000000E-02 threshold for treating states as degnerate
   RTIME   =    0.100 relaxation time in fs

 Orbital magnetization related:
   ORBITALMAG=     F  switch on orbital magnetization
   LCHIMAG   =     F  perturbation theory with respect to B field
   DQ        =  0.001000  dq finite difference perturbation B field



--------------------------------------------------------------------------------------------------------


 linear response
 charge density and potential will be updated during run
 non-spin polarized calculation
 Variant of blocked Davidson
 Davidson routine will perform the subspace rotation
 perform sub-space diagonalisation
    after iterative eigenvector-optimisation
 modified Broyden-mixing scheme, WC =      100.0
 initial mixing is a Kerker type mixing with AMIX =  0.4000 and BMIX =      1.0000
 Hartree-type preconditioning will be used
 using additional bands            4
 reciprocal scheme for non local part
 use partial core corrections
 calculate Harris-corrections to forces 
   (improved forces if not selfconsistent)
 use gradient corrections 
 use of overlap-Matrix (Vanderbilt PP)
 Gauss-broadening in eV      SIGMA  =   0.10


--------------------------------------------------------------------------------------------------------


  energy-cutoff  :      500.00
  volume of cell :    15625.00
      direct lattice vectors                 reciprocal lattice vectors
    25.000000000  0.000000000  0.000000000     0.040000000  0.000000000  0.000000000
     0.000000000 25.000000000  0.000000000     0.000000000  0.040000000  0.000000000
     0.000000000  0.000000000 25.000000000     0.000000000  0.000000000  0.040000000

  length of vectors
    25.000000000 25.000000000 25.000000000     0.040000000  0.040000000  0.040000000


 
 k-points in units of 2pi/SCALE and weight: Gesamt                                  
   0.00000000  0.00000000  0.00000000       1.000
 
 k-points in reciprocal lattice and weights: Gesamt                                  
   0.00000000  0.00000000  0.00000000       1.000
 
 position of ions in fractional coordinates (direct lattice) 
   0.93349520  0.01080343  0.99983863
   0.94863191  0.96961586  0.99890584
   0.94804278  0.03011631  0.03679815
   0.88936523  0.00936494  0.00086901
   0.94040600  0.07318605  0.95241499
   0.95328772  0.03652090  0.95266009
 
 position of ions in cartesian coordinates  (Angst):
  23.33737998  0.27008576 24.99596579
  23.71579768 24.24039648 24.97264610
  23.70106957  0.75290776  0.91995374
  22.23413078  0.23412357  0.02172530
  23.51015011  1.82965124 23.81037487
  23.83219294  0.91302262 23.81650236
 


--------------------------------------------------------------------------------------------------------


 k-point  1 :   0.0000 0.0000 0.0000  plane waves:  396599

 maximum and minimum number of plane-waves per node :    396599   396599

 maximum number of plane-waves:    396599
 maximum index in each direction: 
   IXMAX=   45   IYMAX=   45   IZMAX=   45
   IXMIN=  -45   IYMIN=  -45   IZMIN=  -45

 NGX is ok and might be reduce to 182
 NGY is ok and might be reduce to 182
 NGZ is ok and might be reduce to 182

 serial   3D FFT for wavefunctions
 parallel 3D FFT for charge:
    minimum data exchange during FFTs selected (reduces bandwidth)


 total amount of memory used by VASP on root node 12427524. kBytes
========================================================================

   base      :      30000. kBytes
   nonl-proj :     114220. kBytes
   fftplans  :    8291740. kBytes
   grid      :    3921739. kBytes
   one-center:         18. kBytes
   wavefun   :      69807. kBytes
 
     INWAV:  cpu time    0.0000: real time    0.0003
 Broyden mixing: mesh for mixing (old mesh)
   NGX = 91   NGY = 91   NGZ = 91
  (NGX  =384   NGY  =384   NGZ  =384)
  gives a total of 753571 points

 initial charge density was supplied:
 charge density of overlapping atoms calculated
 number of electron      14.0000000 magnetization 
 keeping initial charge density in first step


--------------------------------------------------------------------------------------------------------


 Maximum index for augmentation-charges        45587 (set IRDMAX)


--------------------------------------------------------------------------------------------------------


 First call to EWALD:  gamma=   0.071
 Maximum number of real-space cells 3x 3x 3
 Maximum number of reciprocal cells 3x 3x 3

 FEWALD executed in parallel
    FEWALD:  cpu time    0.0000: real time    0.0012


----------------------------------------- Iteration    1(   1)  ---------------------------------------


    POTLOK:  cpu time   28.1560: real time   28.1591
    SETDIJ:  cpu time   12.3240: real time   12.3219
     EDDAV:  cpu time   25.4560: real time   25.4581
       DOS:  cpu time    0.0000: real time    0.0001
    --------------------------------------------
      LOOP:  cpu time   65.9360: real time   65.9992

 eigenvalue-minimisations  :    38
 total energy-change (2. order) : 0.8360708E+02  (-0.2408298E+03)
 number of electron      14.0000000 magnetization 
 augmentation part       14.0000000 magnetization 

 Free energy of the ion-electron system (eV)
  ---------------------------------------------------
  alpha Z        PSCENC =         0.04788262
  Ewald energy   TEWEN  =       522.17920661
  -Hartree energ DENC   =      -989.74285754
  -exchange      EXHF   =         0.00000000
  -V(xc)+E(xc)   XCENC  =        49.89884707
  PAW double counting   =       463.60763301     -466.01122063
  entropy T*S    EENTRO =        -0.05423566
  eigenvalues    EBANDS =      -125.76875365
  atomic energy  EATOM  =       629.45057577
  Solvation  Ediel_sol  =         0.00000000
  ---------------------------------------------------
  free energy    TOTEN  =        83.60707762 eV

  energy without entropy =       83.66131327  energy(sigma->0) =       83.63419545


--------------------------------------------------------------------------------------------------------




 average (electrostatic) potential at core
  the test charge radii are     0.6991  0.5201  0.7215
  (the norm of the test charge is              1.0000)
       1 -66.0740       2 -46.6498       3 -46.5393       4 -46.5396       5 -46.8655
       6 -86.5384
 
 
 
 E-fermi :   0.2451     XC(G=0):  -0.0985     alpha+bet : -0.0183


 k-point     1 :       0.0000    0.0000    0.0000
  band No.  band energies     occupation 
      1     -25.3327      2.00000
      2     -17.6403      2.00000
      3      -9.1730      2.00000
      4      -8.0052      2.00000
      5      -2.7312      2.00000
      6      -0.1809      2.00000
      7       0.1595      1.77391
      8       0.3307      0.22608
      9       0.5593      0.00001
     10       0.8490      0.00000
     11       0.9882      0.00000


--------------------------------------------------------------------------------------------------------


 soft charge-density along one line, spin component           1
         0         1         2         3         4         5         6         7         8         9
 total charge-density along one line
 
 pseudopotential strength for first ion, spin component:           1
 10.673  14.204  -0.003   0.003  -0.001   0.009  -0.011   0.004
 14.204  18.902  -0.004   0.004  -0.001   0.012  -0.015   0.005
 -0.003  -0.004  -4.790  -0.002   0.001   9.394   0.004  -0.002
  0.003   0.004  -0.002  -4.789  -0.001   0.004   9.391   0.002
 -0.001  -0.001   0.001  -0.001  -4.791  -0.002   0.002   9.395
  0.009   0.012   9.394   0.004  -0.002 -20.582  -0.007   0.003
 -0.011  -0.015   0.004   9.391   0.002  -0.007 -20.577  -0.003
  0.004   0.005  -0.002   0.002   9.395   0.003  -0.003 -20.584
 total augmentation occupancy for first ion, spin component:           1
  2.000   0.000   0.000   0.000   0.000   0.000   0.000   0.000
  0.000   0.000   0.000   0.000   0.000   0.000   0.000   0.000
  0.000   0.000   0.667   0.000   0.000   0.000   0.000   0.000
  0.000   0.000   0.000   0.667   0.000   0.000   0.000   0.000
  0.000   0.000   0.000   0.000   0.667   0.000   0.000   0.000
  0.000   0.000   0.000   0.000   0.000   0.000   0.000   0.000
  0.000   0.000   0.000   0.000   0.000   0.000   0.000   0.000
  0.000   0.000   0.000   0.000   0.000   0.000   0.000   0.000


----------------------------------------- Iteration    1(   2)  ---------------------------------------


     EDDAV:  cpu time   28.6120: real time   28.6140
       DOS:  cpu time    0.0000: real time    0.0000
    --------------------------------------------
      LOOP:  cpu time   28.6120: real time   28.6721

 eigenvalue-minimisations  :    44
 total energy-change (2. order) :-0.8452962E+02  (-0.8245034E+02)
 number of electron      14.0000000 magnetization 
 augmentation part       14.0000000 magnetization 

 Free energy of the ion-electron system (eV)
  ---------------------------------------------------
  alpha Z        PSCENC =         0.04788262
  Ewald energy   TEWEN  =       522.17920661
  -Hartree energ DENC   =      -989.74285754
  -exchange      EXHF   =         0.00000000
  -V(xc)+E(xc)   XCENC  =        49.89884707
  PAW double counting   =       463.60763301     -466.01122063
  entropy T*S    EENTRO =        -0.00000000
  eigenvalues    EBANDS =      -210.35261242
  atomic energy  EATOM  =       629.45057577
  Solvation  Ediel_sol  =         0.00000000
  ---------------------------------------------------
  free energy    TOTEN  =        -0.92254550 eV

  energy without entropy =       -0.92254550  energy(sigma->0) =       -0.92254550


--------------------------------------------------------------------------------------------------------




 average (electrostatic) potential at core
  the test charge radii are     0.6991  0.5201  0.7215
  (the norm of the test charge is              1.0000)
       1 -66.0740       2 -46.6498       3 -46.5393       4 -46.5396       5 -46.8655
       6 -86.5384
 
 
 
 E-fermi :  -1.9266     XC(G=0):  -0.0985     alpha+bet : -0.0183


 k-point     1 :       0.0000    0.0000    0.0000
  band No.  band energies     occupation 
      1     -29.8780      2.00000
      2     -21.4165      2.00000
      3     -15.9064      2.00000
      4     -14.6965      2.00000
      5     -13.4010      2.00000
      6      -7.4518      2.00000
      7      -2.4261      2.00000
      8      -1.4364      0.00000
      9      -0.3828      0.00000
     10       0.0144      0.00000
     11       0.5037      0.00000


--------------------------------------------------------------------------------------------------------


 soft charge-density along one line, spin component           1
         0         1         2         3         4         5         6         7         8         9
 total charge-density along one line
 
 pseudopotential strength for first ion, spin component:           1
 10.673  14.204  -0.003   0.003  -0.001   0.009  -0.011   0.004
 14.204  18.902  -0.004   0.004  -0.001   0.012  -0.015   0.005
 -0.003  -0.004  -4.790  -0.002   0.001   9.394   0.004  -0.002
  0.003   0.004  -0.002  -4.789  -0.001   0.004   9.391   0.002
 -0.001  -0.001   0.001  -0.001  -4.791  -0.002   0.002   9.395
  0.009   0.012   9.394   0.004  -0.002 -20.582  -0.007   0.003
 -0.011  -0.015   0.004   9.391   0.002  -0.007 -20.577  -0.003
  0.004   0.005  -0.002   0.002   9.395   0.003  -0.003 -20.584
 total augmentation occupancy for first ion, spin component:           1
  2.000   0.000   0.000   0.000   0.000   0.000   0.000   0.000
  0.000   0.000   0.000   0.000   0.000   0.000   0.000   0.000
  0.000   0.000   0.667   0.000   0.000   0.000   0.000   0.000
  0.000   0.000   0.000   0.667   0.000   0.000   0.000   0.000
  0.000   0.000   0.000   0.000   0.667   0.000   0.000   0.000
  0.000   0.000   0.000   0.000   0.000   0.000   0.000   0.000
  0.000   0.000   0.000   0.000   0.000   0.000   0.000   0.000
  0.000   0.000   0.000   0.000   0.000   0.000   0.000   0.000


----------------------------------------- Iteration    1(   3)  ---------------------------------------


     EDDAV:  cpu time   18.4960: real time   18.4976
       DOS:  cpu time    0.0000: real time    0.0000
    --------------------------------------------
      LOOP:  cpu time   18.5000: real time   18.6185

 eigenvalue-minimisations  :    25
 total energy-change (2. order) :-0.2859805E+02  (-0.2858123E+02)
 number of electron      14.0000000 magnetization 
 augmentation part       14.0000000 magnetization 

 Free energy of the ion-electron system (eV)
  ---------------------------------------------------
  alpha Z        PSCENC =         0.04788262
  Ewald energy   TEWEN  =       522.17920661
  -Hartree energ DENC   =      -989.74285754
  -exchange      EXHF   =         0.00000000
  -V(xc)+E(xc)   XCENC  =        49.89884707
  PAW double counting   =       463.60763301     -466.01122063
  entropy T*S    EENTRO =        -0.00000000
  eigenvalues    EBANDS =      -238.95066544
  atomic energy  EATOM  =       629.45057577
  Solvation  Ediel_sol  =         0.00000000
  ---------------------------------------------------
  free energy    TOTEN  =       -29.52059852 eV

  energy without entropy =      -29.52059852  energy(sigma->0) =      -29.52059852


--------------------------------------------------------------------------------------------------------




 average (electrostatic) potential at core
  the test charge radii are     0.6991  0.5201  0.7215
  (the norm of the test charge is              1.0000)
       1 -66.0740       2 -46.6498       3 -46.5393       4 -46.5396       5 -46.8655
       6 -86.5384
 
 
 
 E-fermi :  -8.7731     XC(G=0):  -0.0985     alpha+bet : -0.0183


 k-point     1 :       0.0000    0.0000    0.0000
  band No.  band energies     occupation 
      1     -29.9266      2.00000
      2     -21.4781      2.00000
      3     -16.7678      2.00000
      4     -14.9515      2.00000
      5     -14.8145      2.00000
      6     -12.2943      2.00000
      7      -9.2425      2.00000
      8      -1.8193      0.00000
      9      -0.9833      0.00000
     10      -0.1895      0.00000
     11       0.0544      0.00000


--------------------------------------------------------------------------------------------------------


 soft charge-density along one line, spin component           1
         0         1         2         3         4         5         6         7         8         9
 total charge-density along one line
 
 pseudopotential strength for first ion, spin component:           1
 10.673  14.204  -0.003   0.003  -0.001   0.009  -0.011   0.004
 14.204  18.902  -0.004   0.004  -0.001   0.012  -0.015   0.005
 -0.003  -0.004  -4.790  -0.002   0.001   9.394   0.004  -0.002
  0.003   0.004  -0.002  -4.789  -0.001   0.004   9.391   0.002
 -0.001  -0.001   0.001  -0.001  -4.791  -0.002   0.002   9.395
  0.009   0.012   9.394   0.004  -0.002 -20.582  -0.007   0.003
 -0.011  -0.015   0.004   9.391   0.002  -0.007 -20.577  -0.003
  0.004   0.005  -0.002   0.002   9.395   0.003  -0.003 -20.584
 total augmentation occupancy for first ion, spin component:           1
  2.000   0.000   0.000   0.000   0.000   0.000   0.000   0.000
  0.000   0.000   0.000   0.000   0.000   0.000   0.000   0.000
  0.000   0.000   0.667   0.000   0.000   0.000   0.000   0.000
  0.000   0.000   0.000   0.667   0.000   0.000   0.000   0.000
  0.000   0.000   0.000   0.000   0.667   0.000   0.000   0.000
  0.000   0.000   0.000   0.000   0.000   0.000   0.000   0.000
  0.000   0.000   0.000   0.000   0.000   0.000   0.000   0.000
  0.000   0.000   0.000   0.000   0.000   0.000   0.000   0.000


----------------------------------------- Iteration    1(   4)  ---------------------------------------


     EDDAV:  cpu time   20.0400: real time   20.0396
       DOS:  cpu time    0.0000: real time    0.0000
    --------------------------------------------
      LOOP:  cpu time   20.0400: real time   20.1036

 eigenvalue-minimisations  :    28
 total energy-change (2. order) :-0.3972545E+01  (-0.3969569E+01)
 number of electron      14.0000000 magnetization 
 augmentation part       14.0000000 magnetization 

 Free energy of the ion-electron system (eV)
  ---------------------------------------------------
  alpha Z        PSCENC =         0.04788262
  Ewald energy   TEWEN  =       522.17920661
  -Hartree energ DENC   =      -989.74285754
  -exchange      EXHF   =         0.00000000
  -V(xc)+E(xc)   XCENC  =        49.89884707
  PAW double counting   =       463.60763301     -466.01122063
  entropy T*S    EENTRO =        -0.00000000
  eigenvalues    EBANDS =      -242.92321040
  atomic energy  EATOM  =       629.45057577
  Solvation  Ediel_sol  =         0.00000000
  ---------------------------------------------------
  free energy    TOTEN  =       -33.49314348 eV

  energy without entropy =      -33.49314348  energy(sigma->0) =      -33.49314348


--------------------------------------------------------------------------------------------------------




 average (electrostatic) potential at core
  the test charge radii are     0.6991  0.5201  0.7215
  (the norm of the test charge is              1.0000)
       1 -66.0740       2 -46.6498       3 -46.5393       4 -46.5396       5 -46.8655
       6 -86.5384
 
 
 
 E-fermi : -10.3473     XC(G=0):  -0.0985     alpha+bet : -0.0183


 k-point     1 :       0.0000    0.0000    0.0000
  band No.  band energies     occupation 
      1     -29.9273      2.00000
      2     -21.4797      2.00000
      3     -16.7917      2.00000
      4     -14.9692      2.00000
      5     -14.8331      2.00000
      6     -12.5654      2.00000
      7     -10.8951      2.00000
      8      -2.0241      0.00000
      9      -1.2289      0.00000
     10      -0.3452      0.00000
     11      -0.1605      0.00000


--------------------------------------------------------------------------------------------------------


 soft charge-density along one line, spin component           1
         0         1         2         3         4         5         6         7         8         9
 total charge-density along one line
 
 pseudopotential strength for first ion, spin component:           1
 10.673  14.204  -0.003   0.003  -0.001   0.009  -0.011   0.004
 14.204  18.902  -0.004   0.004  -0.001   0.012  -0.015   0.005
 -0.003  -0.004  -4.790  -0.002   0.001   9.394   0.004  -0.002
  0.003   0.004  -0.002  -4.789  -0.001   0.004   9.391   0.002
 -0.001  -0.001   0.001  -0.001  -4.791  -0.002   0.002   9.395
  0.009   0.012   9.394   0.004  -0.002 -20.582  -0.007   0.003
 -0.011  -0.015   0.004   9.391   0.002  -0.007 -20.577  -0.003
  0.004   0.005  -0.002   0.002   9.395   0.003  -0.003 -20.584
 total augmentation occupancy for first ion, spin component:           1
  2.000   0.000   0.000   0.000   0.000   0.000   0.000   0.000
  0.000   0.000   0.000   0.000   0.000   0.000   0.000   0.000
  0.000   0.000   0.667   0.000   0.000   0.000   0.000   0.000
  0.000   0.000   0.000   0.667   0.000   0.000   0.000   0.000
  0.000   0.000   0.000   0.000   0.667   0.000   0.000   0.000
  0.000   0.000   0.000   0.000   0.000   0.000   0.000   0.000
  0.000   0.000   0.000   0.000   0.000   0.000   0.000   0.000
  0.000   0.000   0.000   0.000   0.000   0.000   0.000   0.000


----------------------------------------- Iteration    1(   5)  ---------------------------------------


     EDDAV:  cpu time   28.5720: real time   28.5752
       DOS:  cpu time    0.0000: real time    0.0000
    CHARGE:  cpu time   13.3320: real time   13.3360
    MIXING:  cpu time    0.6080: real time    0.6094
    --------------------------------------------
      LOOP:  cpu time   42.5200: real time   42.5815

 eigenvalue-minimisations  :    44
 total energy-change (2. order) :-0.9313322E-01  (-0.9311109E-01)
 number of electron      14.0000000 magnetization 
 augmentation part        0.9538531 magnetization 

 Broyden mixing:
  rms(total) = 0.99189E+00    rms(broyden)= 0.99119E+00
  rms(prec ) = 0.10506E+01
  weight for this iteration     100.00

 Free energy of the ion-electron system (eV)
  ---------------------------------------------------
  alpha Z        PSCENC =         0.04788262
  Ewald energy   TEWEN  =       522.17920661
  -Hartree energ DENC   =      -989.74285754
  -exchange      EXHF   =         0.00000000
  -V(xc)+E(xc)   XCENC  =        49.89884707
  PAW double counting   =       463.60763301     -466.01122063
  entropy T*S    EENTRO =        -0.00000000
  eigenvalues    EBANDS =      -243.01634362
  atomic energy  EATOM  =       629.45057577
  Solvation  Ediel_sol  =         0.00000000
  ---------------------------------------------------
  free energy    TOTEN  =       -33.58627670 eV

  energy without entropy =      -33.58627670  energy(sigma->0) =      -33.58627670


--------------------------------------------------------------------------------------------------------




 average (electrostatic) potential at core
  the test charge radii are     0.6991  0.5201  0.7215
  (the norm of the test charge is              1.0000)
       1 -66.0740       2 -46.6498       3 -46.5393       4 -46.5396       5 -46.8655
       6 -86.5384
 
 
 
 E-fermi : -10.4224     XC(G=0):  -0.0985     alpha+bet : -0.0183


 k-point     1 :       0.0000    0.0000    0.0000
  band No.  band energies     occupation 
      1     -29.9273      2.00000
      2     -21.4797      2.00000
      3     -16.7922      2.00000
      4     -14.9695      2.00000
      5     -14.8333      2.00000
      6     -12.5735      2.00000
      7     -10.9326      2.00000
      8      -2.1401      0.00000
      9      -1.2854      0.00000
     10      -0.4253      0.00000
     11      -0.2798      0.00000


--------------------------------------------------------------------------------------------------------


 soft charge-density along one line, spin component           1
         0         1         2         3         4         5         6         7         8         9
 total charge-density along one line
 
 pseudopotential strength for first ion, spin component:           1
 10.673  14.204  -0.003   0.003  -0.001   0.009  -0.011   0.004
 14.204  18.902  -0.004   0.004  -0.001   0.012  -0.015   0.005
 -0.003  -0.004  -4.790  -0.002   0.001   9.394   0.004  -0.002
  0.003   0.004  -0.002  -4.789  -0.001   0.004   9.391   0.002
 -0.001  -0.001   0.001  -0.001  -4.791  -0.002   0.002   9.395
  0.009   0.012   9.394   0.004  -0.002 -20.582  -0.007   0.003
 -0.011  -0.015   0.004   9.391   0.002  -0.007 -20.577  -0.003
  0.004   0.005  -0.002   0.002   9.395   0.003  -0.003 -20.584
 total augmentation occupancy for first ion, spin component:           1
  5.887  -2.229  -0.005  -0.048   0.030   0.017  -0.040   0.019
 -2.229   0.907  -0.077   0.166  -0.074  -0.016   0.034  -0.015
 -0.005  -0.077   1.731   0.172  -0.072   0.101  -0.006   0.003
 -0.048   0.166   0.172   1.548   0.109  -0.006   0.111  -0.006
  0.030  -0.074  -0.072   0.109   1.783   0.003  -0.006   0.100
  0.017  -0.016   0.101  -0.006   0.003   0.007  -0.002   0.001
 -0.040   0.034  -0.006   0.111  -0.006  -0.002   0.010  -0.002
  0.019  -0.015   0.003  -0.006   0.100   0.001  -0.002   0.006


----------------------------------------- Iteration    1(   6)  ---------------------------------------


    POTLOK:  cpu time   26.6360: real time   26.6382
    SETDIJ:  cpu time   12.2840: real time   12.2853
     EDDAV:  cpu time   22.8400: real time   22.8423
       DOS:  cpu time    0.0000: real time    0.0000
    CHARGE:  cpu time   13.3040: real time   13.3054
    MIXING:  cpu time    0.6320: real time    0.6322
    --------------------------------------------
      LOOP:  cpu time   75.7000: real time   75.7921

 eigenvalue-minimisations  :    33
 total energy-change (2. order) : 0.2745609E+01  (-0.7239714E+00)
 number of electron      14.0000000 magnetization 
 augmentation part        0.8459781 magnetization 

 Broyden mixing:
  rms(total) = 0.48585E+00    rms(broyden)= 0.48573E+00
  rms(prec ) = 0.50734E+00
  weight for this iteration     100.00

 eigenvalues of (default mixing * dielectric matrix)
  average eigenvalue GAMMA=   1.2450
  1.2450

 Free energy of the ion-electron system (eV)
  ---------------------------------------------------
  alpha Z        PSCENC =         0.04788262
  Ewald energy   TEWEN  =       522.17920661
  -Hartree energ DENC   =     -1022.75318007
  -exchange      EXHF   =         0.00000000
  -V(xc)+E(xc)   XCENC  =        51.67634914
  PAW double counting   =       643.51101371     -646.32170162
  entropy T*S    EENTRO =        -0.00000000
  eigenvalues    EBANDS =      -208.63081359
  atomic energy  EATOM  =       629.45057577
  Solvation  Ediel_sol  =         0.00000000
  ---------------------------------------------------
  free energy    TOTEN  =       -30.84066743 eV

  energy without entropy =      -30.84066743  energy(sigma->0) =      -30.84066743


--------------------------------------------------------------------------------------------------------




 average (electrostatic) potential at core
  the test charge radii are     0.6991  0.5201  0.7215
  (the norm of the test charge is              1.0000)
       1 -62.0357       2 -45.0847       3 -45.0472       4 -45.0499       5 -46.3258
       6 -82.0572
 
 
 
 E-fermi :  -7.6829     XC(G=0):  -0.1879     alpha+bet : -0.0183


 k-point     1 :       0.0000    0.0000    0.0000
  band No.  band energies     occupation 
      1     -27.1869      2.00000
      2     -19.1781      2.00000
      3     -14.4027      2.00000
      4     -12.8642      2.00000
      5     -12.4600      2.00000
      6     -10.0320      2.00000
      7      -8.1914      2.00000
      8      -1.5168      0.00000
      9      -0.8769      0.00000
     10      -0.2851      0.00000
     11      -0.2396      0.00000


--------------------------------------------------------------------------------------------------------


 soft charge-density along one line, spin component           1
         0         1         2         3         4         5         6         7         8         9
 total charge-density along one line
 
 pseudopotential strength for first ion, spin component:           1
 10.458  13.912   0.000  -0.001   0.000  -0.000   0.001  -0.001
 13.912  18.508   0.001  -0.001   0.001  -0.000   0.002  -0.001
  0.000   0.001  -4.556   0.001  -0.000   8.917  -0.003   0.001
 -0.001  -0.001   0.001  -4.558   0.001  -0.003   8.920  -0.002
  0.000   0.001  -0.000   0.001  -4.556   0.001  -0.002   8.916
 -0.000  -0.000   8.917  -0.003   0.001 -19.598   0.007  -0.003
  0.001   0.002  -0.003   8.920  -0.002   0.007 -19.606   0.006
 -0.001  -0.001   0.001  -0.002   8.916  -0.003   0.006 -19.595
 total augmentation occupancy for first ion, spin component:           1
  7.392  -3.159  -0.032  -0.005   0.021   0.013  -0.030   0.014
 -3.159   1.401  -0.031   0.095  -0.053  -0.013   0.029  -0.013
 -0.032  -0.031   1.658   0.126  -0.059   0.126  -0.002  -0.000
 -0.005   0.095   0.126   1.512   0.082  -0.002   0.130  -0.003
  0.021  -0.053  -0.059   0.082   1.690   0.001  -0.004   0.125
  0.013  -0.013   0.126  -0.002   0.001   0.010  -0.002   0.001
 -0.030   0.029  -0.002   0.130  -0.004  -0.002   0.013  -0.002
  0.014  -0.013  -0.000  -0.003   0.125   0.001  -0.002   0.010


----------------------------------------- Iteration    1(   7)  ---------------------------------------


    POTLOK:  cpu time   26.6160: real time   26.6200
    SETDIJ:  cpu time   12.2520: real time   12.2539
     EDDAV:  cpu time   22.7840: real time   22.7856
       DOS:  cpu time    0.0000: real time    0.0000
    CHARGE:  cpu time   13.3440: real time   13.3431
    MIXING:  cpu time    0.6440: real time    0.6454
    --------------------------------------------
      LOOP:  cpu time   75.6440: real time   75.7799

 eigenvalue-minimisations  :    33
 total energy-change (2. order) : 0.4814933E+00  (-0.8846226E-01)
 number of electron      14.0000000 magnetization 
 augmentation part        0.8301748 magnetization 

 Broyden mixing:
  rms(total) = 0.24944E+00    rms(broyden)= 0.24942E+00
  rms(prec ) = 0.25952E+00
  weight for this iteration     100.00

 eigenvalues of (default mixing * dielectric matrix)
  average eigenvalue GAMMA=   1.6637
  1.1985  2.1290

 Free energy of the ion-electron system (eV)
  ---------------------------------------------------
  alpha Z        PSCENC =         0.04788262
  Ewald energy   TEWEN  =       522.17920661
  -Hartree energ DENC   =     -1036.60425942
  -exchange      EXHF   =         0.00000000
  -V(xc)+E(xc)   XCENC  =        52.50766768
  PAW double counting   =       799.04124235     -801.89134866
  entropy T*S    EENTRO =        -0.00000000
  eigenvalues    EBANDS =      -195.09014109
  atomic energy  EATOM  =       629.45057577
  Solvation  Ediel_sol  =         0.00000000
  ---------------------------------------------------
  free energy    TOTEN  =       -30.35917414 eV

  energy without entropy =      -30.35917414  energy(sigma->0) =      -30.35917414


--------------------------------------------------------------------------------------------------------




 average (electrostatic) potential at core
  the test charge radii are     0.6991  0.5201  0.7215
  (the norm of the test charge is              1.0000)
       1 -60.2894       2 -43.7397       3 -43.6798       4 -43.7028       5 -45.7779
       6 -81.2411
 
 
 
 E-fermi :  -6.8781     XC(G=0):  -0.2044     alpha+bet : -0.0183


 k-point     1 :       0.0000    0.0000    0.0000
  band No.  band energies     occupation 
      1     -26.4127      2.00000
      2     -17.9989      2.00000
      3     -13.5033      2.00000
      4     -11.7530      2.00000
      5     -11.4191      2.00000
      6      -9.1053      2.00000
      7      -7.3528      2.00000
      8      -1.3221      0.00000
      9      -0.7539      0.00000
     10      -0.2780      0.00000
     11      -0.2192      0.00000


--------------------------------------------------------------------------------------------------------


 soft charge-density along one line, spin component           1
         0         1         2         3         4         5         6         7         8         9
 total charge-density along one line
 
 pseudopotential strength for first ion, spin component:           1
 10.353  13.771   0.002  -0.004   0.002  -0.006   0.011  -0.004
 13.771  18.316   0.003  -0.005   0.002  -0.008   0.014  -0.006
  0.002   0.003  -4.458   0.003  -0.001   8.721  -0.006   0.002
 -0.004  -0.005   0.003  -4.461   0.002  -0.006   8.728  -0.005
  0.002   0.002  -0.001   0.002  -4.457   0.002  -0.005   8.718
 -0.006  -0.008   8.721  -0.006   0.002 -19.202   0.014  -0.006
  0.011   0.014  -0.006   8.728  -0.005   0.014 -19.218   0.011
 -0.004  -0.006   0.002  -0.005   8.718  -0.006   0.011 -19.197
 total augmentation occupancy for first ion, spin component:           1
  7.481  -3.233  -0.029  -0.009   0.013   0.011  -0.031   0.015
 -3.233   1.436  -0.027   0.084  -0.039  -0.012   0.027  -0.012
 -0.029  -0.027   1.601   0.113  -0.052   0.128  -0.003   0.001
 -0.009   0.084   0.113   1.467   0.072  -0.003   0.134  -0.003
  0.013  -0.039  -0.052   0.072   1.623   0.002  -0.003   0.129
  0.011  -0.012   0.128  -0.003   0.002   0.011  -0.002   0.001
 -0.031   0.027  -0.003   0.134  -0.003  -0.002   0.014  -0.002
  0.015  -0.012   0.001  -0.003   0.129   0.001  -0.002   0.011


----------------------------------------- Iteration    1(   8)  ---------------------------------------


    POTLOK:  cpu time   26.6720: real time   26.6730
    SETDIJ:  cpu time   12.2400: real time   12.2444
     EDDAV:  cpu time   24.2880: real time   24.2886
       DOS:  cpu time    0.0000: real time    0.0000
    CHARGE:  cpu time   13.2960: real time   13.2974
    MIXING:  cpu time    0.6640: real time    0.6665
    --------------------------------------------
      LOOP:  cpu time   77.1640: real time   77.2482

 eigenvalue-minimisations  :    36
 total energy-change (2. order) : 0.1573630E+00  (-0.1896552E-01)
 number of electron      14.0000000 magnetization 
 augmentation part        0.8302696 magnetization 

 Broyden mixing:
  rms(total) = 0.40099E-01    rms(broyden)= 0.40088E-01
  rms(prec ) = 0.47719E-01
  weight for this iteration     100.00

 eigenvalues of (default mixing * dielectric matrix)
  average eigenvalue GAMMA=   1.5277
  2.2608  1.0607  1.2616

 Free energy of the ion-electron system (eV)
  ---------------------------------------------------
  alpha Z        PSCENC =         0.04788262
  Ewald energy   TEWEN  =       522.17920661
  -Hartree energ DENC   =     -1045.24471072
  -exchange      EXHF   =         0.00000000
  -V(xc)+E(xc)   XCENC  =        53.10426047
  PAW double counting   =       928.65024444     -931.47593727
  entropy T*S    EENTRO =        -0.00000000
  eigenvalues    EBANDS =      -186.91333303
  atomic energy  EATOM  =       629.45057577
  Solvation  Ediel_sol  =         0.00000000
  ---------------------------------------------------
  free energy    TOTEN  =       -30.20181110 eV

  energy without entropy =      -30.20181110  energy(sigma->0) =      -30.20181110


--------------------------------------------------------------------------------------------------------




 average (electrostatic) potential at core
  the test charge radii are     0.6991  0.5201  0.7215
  (the norm of the test charge is              1.0000)
       1 -59.8394       2 -42.5543       3 -42.4515       4 -42.4489       5 -45.1470
       6 -80.9671
 
 
 
 E-fermi :  -6.3601     XC(G=0):  -0.2151     alpha+bet : -0.0183


 k-point     1 :       0.0000    0.0000    0.0000
  band No.  band energies     occupation 
      1     -25.9839      2.00000
      2     -17.3030      2.00000
      3     -12.9667      2.00000
      4     -11.0618      2.00000
      5     -10.8085      2.00000
      6      -8.5083      2.00000
      7      -6.8244      2.00000
      8      -1.1581      0.00000
      9      -0.6433      0.00000
     10      -0.2406      0.00000
     11      -0.1822      0.00000


--------------------------------------------------------------------------------------------------------


 soft charge-density along one line, spin component           1
         0         1         2         3         4         5         6         7         8         9
 total charge-density along one line
 
 pseudopotential strength for first ion, spin component:           1
 10.315  13.720   0.003  -0.005   0.002  -0.009   0.015  -0.006
 13.720  18.248   0.004  -0.007   0.003  -0.012   0.020  -0.008
  0.003   0.004  -4.434   0.004  -0.002   8.678  -0.009   0.004
 -0.005  -0.007   0.004  -4.439   0.003  -0.009   8.688  -0.007
  0.002   0.003  -0.002   0.003  -4.433   0.004  -0.007   8.675
 -0.009  -0.012   8.678  -0.009   0.004 -19.126   0.019  -0.008
  0.015   0.020  -0.009   8.688  -0.007   0.019 -19.148   0.014
 -0.006  -0.008   0.004  -0.007   8.675  -0.008   0.014 -19.121
 total augmentation occupancy for first ion, spin component:           1
  7.430  -3.208  -0.005  -0.035   0.024   0.014  -0.035   0.016
 -3.208   1.425  -0.045   0.103  -0.048  -0.014   0.030  -0.013
 -0.005  -0.045   1.587   0.117  -0.054   0.125  -0.004   0.002
 -0.035   0.103   0.117   1.452   0.072  -0.004   0.132  -0.004
  0.024  -0.048  -0.054   0.072   1.612   0.002  -0.004   0.125
  0.014  -0.014   0.125  -0.004   0.002   0.011  -0.002   0.001
 -0.035   0.030  -0.004   0.132  -0.004  -0.002   0.013  -0.002
  0.016  -0.013   0.002  -0.004   0.125   0.001  -0.002   0.010


----------------------------------------- Iteration    1(   9)  ---------------------------------------


    POTLOK:  cpu time   26.7360: real time   26.7387
    SETDIJ:  cpu time   12.2480: real time   12.2506
     EDDAV:  cpu time   24.3040: real time   24.3053
       DOS:  cpu time    0.0000: real time    0.0000
    CHARGE:  cpu time   13.3040: real time   13.3033
    MIXING:  cpu time    0.6840: real time    0.6852
    --------------------------------------------
      LOOP:  cpu time   77.2800: real time   77.3594

 eigenvalue-minimisations  :    36
 total energy-change (2. order) : 0.9639063E-02  (-0.1918108E-02)
 number of electron      14.0000000 magnetization 
 augmentation part        0.8274828 magnetization 

 Broyden mixing:
  rms(total) = 0.22706E-01    rms(broyden)= 0.22703E-01
  rms(prec ) = 0.28952E-01
  weight for this iteration     100.00

 eigenvalues of (default mixing * dielectric matrix)
  average eigenvalue GAMMA=   1.6052
  1.0537  1.0537  2.1566  2.1566

 Free energy of the ion-electron system (eV)
  ---------------------------------------------------
  alpha Z        PSCENC =         0.04788262
  Ewald energy   TEWEN  =       522.17920661
  -Hartree energ DENC   =     -1047.78234723
  -exchange      EXHF   =         0.00000000
  -V(xc)+E(xc)   XCENC  =        53.22179799
  PAW double counting   =       942.97276860     -945.79909355
  entropy T*S    EENTRO =        -0.00000000
  eigenvalues    EBANDS =      -184.48296284
  atomic energy  EATOM  =       629.45057577
  Solvation  Ediel_sol  =         0.00000000
  ---------------------------------------------------
  free energy    TOTEN  =       -30.19217203 eV

  energy without entropy =      -30.19217203  energy(sigma->0) =      -30.19217203


--------------------------------------------------------------------------------------------------------




 average (electrostatic) potential at core
  the test charge radii are     0.6991  0.5201  0.7215
  (the norm of the test charge is              1.0000)
       1 -59.7692       2 -42.3489       3 -42.2540       4 -42.2524       5 -44.9720
       6 -80.7308
 
 
 
 E-fermi :  -6.1156     XC(G=0):  -0.2185     alpha+bet : -0.0183


 k-point     1 :       0.0000    0.0000    0.0000
  band No.  band energies     occupation 
      1     -25.7763      2.00000
      2     -17.1538      2.00000
      3     -12.7941      2.00000
      4     -10.9130      2.00000
      5     -10.6470      2.00000
      6      -8.3285      2.00000
      7      -6.6288      2.00000
      8      -1.0899      0.00000
      9      -0.5927      0.00000
     10      -0.2167      0.00000
     11      -0.1692      0.00000


--------------------------------------------------------------------------------------------------------


 soft charge-density along one line, spin component           1
         0         1         2         3         4         5         6         7         8         9
 total charge-density along one line
 
 pseudopotential strength for first ion, spin component:           1
 10.309  13.712   0.003  -0.005   0.002  -0.009   0.015  -0.006
 13.712  18.237   0.004  -0.007   0.003  -0.011   0.020  -0.008
  0.003   0.004  -4.431   0.004  -0.002   8.672  -0.009   0.004
 -0.005  -0.007   0.004  -4.436   0.003  -0.009   8.683  -0.007
  0.002   0.003  -0.002   0.003  -4.429   0.004  -0.007   8.669
 -0.009  -0.011   8.672  -0.009   0.004 -19.116   0.020  -0.008
  0.015   0.020  -0.009   8.683  -0.007   0.020 -19.139   0.014
 -0.006  -0.008   0.004  -0.007   8.669  -0.008   0.014 -19.111
 total augmentation occupancy for first ion, spin component:           1
  7.376  -3.177  -0.021  -0.005   0.011   0.012  -0.029   0.014
 -3.177   1.408  -0.032   0.079  -0.037  -0.012   0.026  -0.012
 -0.021  -0.032   1.587   0.115  -0.053   0.126  -0.003   0.001
 -0.005   0.079   0.115   1.452   0.071  -0.003   0.132  -0.004
  0.011  -0.037  -0.053   0.071   1.610   0.001  -0.004   0.126
  0.012  -0.012   0.126  -0.003   0.001   0.011  -0.002   0.001
 -0.029   0.026  -0.003   0.132  -0.004  -0.002   0.013  -0.002
  0.014  -0.012   0.001  -0.004   0.126   0.001  -0.002   0.010


----------------------------------------- Iteration    1(  10)  ---------------------------------------


    POTLOK:  cpu time   26.8920: real time   26.8954
    SETDIJ:  cpu time   12.2320: real time   12.2327
     EDDAV:  cpu time   21.1680: real time   21.1701
       DOS:  cpu time    0.0000: real time    0.0000
    CHARGE:  cpu time   13.3160: real time   13.3156
    MIXING:  cpu time    0.7040: real time    0.7053
    --------------------------------------------
      LOOP:  cpu time   74.3200: real time   74.5320

 eigenvalue-minimisations  :    30
 total energy-change (2. order) : 0.1722949E-02  (-0.4276353E-03)
 number of electron      14.0000000 magnetization 
 augmentation part        0.8265365 magnetization 

 Broyden mixing:
  rms(total) = 0.11157E-01    rms(broyden)= 0.11156E-01
  rms(prec ) = 0.16292E-01
  weight for this iteration     100.00

 eigenvalues of (default mixing * dielectric matrix)
  average eigenvalue GAMMA=   1.6423
  2.3067  2.3067  0.9368  1.2173  1.4443

 Free energy of the ion-electron system (eV)
  ---------------------------------------------------
  alpha Z        PSCENC =         0.04788262
  Ewald energy   TEWEN  =       522.17920661
  -Hartree energ DENC   =     -1049.48435734
  -exchange      EXHF   =         0.00000000
  -V(xc)+E(xc)   XCENC  =        53.26519586
  PAW double counting   =       940.74185993     -943.56221304
  entropy T*S    EENTRO =        -0.00000000
  eigenvalues    EBANDS =      -182.82859950
  atomic energy  EATOM  =       629.45057577
  Solvation  Ediel_sol  =         0.00000000
  ---------------------------------------------------
  free energy    TOTEN  =       -30.19044908 eV

  energy without entropy =      -30.19044908  energy(sigma->0) =      -30.19044908


--------------------------------------------------------------------------------------------------------




 average (electrostatic) potential at core
  the test charge radii are     0.6991  0.5201  0.7215
  (the norm of the test charge is              1.0000)
       1 -59.7448       2 -42.2117       3 -42.1234       4 -42.1238       5 -44.8246
       6 -80.5983
 
 
 
 E-fermi :  -5.9675     XC(G=0):  -0.2209     alpha+bet : -0.0183


 k-point     1 :       0.0000    0.0000    0.0000
  band No.  band energies     occupation 
      1     -25.6322      2.00000
      2     -17.0540      2.00000
      3     -12.6740      2.00000
      4     -10.8108      2.00000
      5     -10.5363      2.00000
      6      -8.2084      2.00000
      7      -6.4988      2.00000
      8      -0.9933      0.00000
      9      -0.5104      0.00000
     10      -0.1769      0.00000
     11      -0.1416      0.00000


--------------------------------------------------------------------------------------------------------


 soft charge-density along one line, spin component           1
         0         1         2         3         4         5         6         7         8         9
 total charge-density along one line
 
 pseudopotential strength for first ion, spin component:           1
 10.307  13.708   0.003  -0.005   0.002  -0.008   0.014  -0.006
 13.708  18.232   0.004  -0.006   0.003  -0.011   0.018  -0.007
  0.003   0.004  -4.430   0.004  -0.002   8.671  -0.009   0.004
 -0.005  -0.006   0.004  -4.435   0.003  -0.009   8.682  -0.007
  0.002   0.003  -0.002   0.003  -4.428   0.004  -0.007   8.669
 -0.008  -0.011   8.671  -0.009   0.004 -19.116   0.019  -0.008
  0.014   0.018  -0.009   8.682  -0.007   0.019 -19.139   0.014
 -0.006  -0.007   0.004  -0.007   8.669  -0.008   0.014 -19.111
 total augmentation occupancy for first ion, spin component:           1
  7.316  -3.139  -0.020  -0.005   0.010   0.012  -0.029   0.014
 -3.139   1.387  -0.033   0.079  -0.037  -0.012   0.026  -0.012
 -0.020  -0.033   1.588   0.113  -0.053   0.125  -0.003   0.001
 -0.005   0.079   0.113   1.454   0.070  -0.003   0.131  -0.004
  0.010  -0.037  -0.053   0.070   1.610   0.001  -0.004   0.125
  0.012  -0.012   0.125  -0.003   0.001   0.011  -0.002   0.001
 -0.029   0.026  -0.003   0.131  -0.004  -0.002   0.013  -0.002
  0.014  -0.012   0.001  -0.004   0.125   0.001  -0.002   0.010


----------------------------------------- Iteration    1(  11)  ---------------------------------------


    POTLOK:  cpu time   26.8600: real time   26.8639
    SETDIJ:  cpu time   12.2280: real time   12.2298
     EDDAV:  cpu time   20.0520: real time   20.0505
       DOS:  cpu time    0.0000: real time    0.0000
    CHARGE:  cpu time   13.3000: real time   13.3036
    MIXING:  cpu time    0.7280: real time    0.7260
    --------------------------------------------
      LOOP:  cpu time   73.1720: real time   73.3211

 eigenvalue-minimisations  :    28
 total energy-change (2. order) :-0.1985461E-02  (-0.2386869E-03)
 number of electron      14.0000000 magnetization 
 augmentation part        0.8270240 magnetization 

 Broyden mixing:
  rms(total) = 0.60610E-02    rms(broyden)= 0.60591E-02
  rms(prec ) = 0.10009E-01
  weight for this iteration     100.00

 eigenvalues of (default mixing * dielectric matrix)
  average eigenvalue GAMMA=   1.7364
  3.2725  2.4356  0.8978  1.4291  1.1917  1.1917

 Free energy of the ion-electron system (eV)
  ---------------------------------------------------
  alpha Z        PSCENC =         0.04788262
  Ewald energy   TEWEN  =       522.17920661
  -Hartree energ DENC   =     -1050.67284330
  -exchange      EXHF   =         0.00000000
  -V(xc)+E(xc)   XCENC  =        53.29178532
  PAW double counting   =       939.82860640     -942.64692728
  entropy T*S    EENTRO =        -0.00000000
  eigenvalues    EBANDS =      -181.67072068
  atomic energy  EATOM  =       629.45057577
  Solvation  Ediel_sol  =         0.00000000
  ---------------------------------------------------
  free energy    TOTEN  =       -30.19243454 eV

  energy without entropy =      -30.19243454  energy(sigma->0) =      -30.19243454


--------------------------------------------------------------------------------------------------------




 average (electrostatic) potential at core
  the test charge radii are     0.6991  0.5201  0.7215
  (the norm of the test charge is              1.0000)
       1 -59.6187       2 -42.1061       3 -42.0183       4 -42.0190       5 -44.7388
       6 -80.5608
 
 
 
 E-fermi :  -5.9354     XC(G=0):  -0.2194     alpha+bet : -0.0183


 k-point     1 :       0.0000    0.0000    0.0000
  band No.  band energies     occupation 
      1     -25.5613      2.00000
      2     -16.9576      2.00000
      3     -12.5932      2.00000
      4     -10.7172      2.00000
      5     -10.4471      2.00000
      6      -8.1299      2.00000
      7      -6.4291      2.00000
      8      -0.9060      0.00000
      9      -0.4315      0.00000
     10      -0.1343      0.00000
     11      -0.1209      0.00000


--------------------------------------------------------------------------------------------------------


 soft charge-density along one line, spin component           1
         0         1         2         3         4         5         6         7         8         9
 total charge-density along one line
 
 pseudopotential strength for first ion, spin component:           1
 10.299  13.698   0.003  -0.005   0.002  -0.008   0.014  -0.006
 13.698  18.218   0.004  -0.006   0.003  -0.011   0.018  -0.007
  0.003   0.004  -4.423   0.004  -0.002   8.657  -0.009   0.004
 -0.005  -0.006   0.004  -4.428   0.003  -0.009   8.668  -0.007
  0.002   0.003  -0.002   0.003  -4.422   0.004  -0.007   8.655
 -0.008  -0.011   8.657  -0.009   0.004 -19.088   0.019  -0.008
  0.014   0.018  -0.009   8.668  -0.007   0.019 -19.111   0.014
 -0.006  -0.007   0.004  -0.007   8.655  -0.008   0.014 -19.084
 total augmentation occupancy for first ion, spin component:           1
  7.302  -3.132  -0.018  -0.010   0.013   0.012  -0.029   0.014
 -3.132   1.383  -0.035   0.083  -0.039  -0.012   0.026  -0.012
 -0.018  -0.035   1.585   0.114  -0.053   0.125  -0.003   0.001
 -0.010   0.083   0.114   1.451   0.070  -0.003   0.131  -0.004
  0.013  -0.039  -0.053   0.070   1.607   0.001  -0.004   0.125
  0.012  -0.012   0.125  -0.003   0.001   0.011  -0.002   0.001
 -0.029   0.026  -0.003   0.131  -0.004  -0.002   0.013  -0.002
  0.014  -0.012   0.001  -0.004   0.125   0.001  -0.002   0.010


----------------------------------------- Iteration    1(  12)  ---------------------------------------


    POTLOK:  cpu time   26.9080: real time   26.9087
    SETDIJ:  cpu time   12.2360: real time   12.2347
     EDDAV:  cpu time   24.2880: real time   24.2915
       DOS:  cpu time    0.0000: real time    0.0000
    CHARGE:  cpu time   13.3040: real time   13.3059
    MIXING:  cpu time    0.7480: real time    0.7496
    --------------------------------------------
      LOOP:  cpu time   77.4840: real time   77.6660

 eigenvalue-minimisations  :    36
 total energy-change (2. order) :-0.2713289E-02  (-0.1929263E-03)
 number of electron      14.0000000 magnetization 
 augmentation part        0.8257691 magnetization 

 Broyden mixing:
  rms(total) = 0.40270E-02    rms(broyden)= 0.40258E-02
  rms(prec ) = 0.62850E-02
  weight for this iteration     100.00

 eigenvalues of (default mixing * dielectric matrix)
  average eigenvalue GAMMA=   1.8210
  3.7260  2.4304  2.0341  1.5335  0.9091  1.0568  1.0568

 Free energy of the ion-electron system (eV)
  ---------------------------------------------------
  alpha Z        PSCENC =         0.04788262
  Ewald energy   TEWEN  =       522.17920661
  -Hartree energ DENC   =     -1051.87546079
  -exchange      EXHF   =         0.00000000
  -V(xc)+E(xc)   XCENC  =        53.31818064
  PAW double counting   =       937.65267102     -940.47343005
  entropy T*S    EENTRO =        -0.00000000
  eigenvalues    EBANDS =      -180.49477366
  atomic energy  EATOM  =       629.45057577
  Solvation  Ediel_sol  =         0.00000000
  ---------------------------------------------------
  free energy    TOTEN  =       -30.19514783 eV

  energy without entropy =      -30.19514783  energy(sigma->0) =      -30.19514783


--------------------------------------------------------------------------------------------------------




 average (electrostatic) potential at core
  the test charge radii are     0.6991  0.5201  0.7215
  (the norm of the test charge is              1.0000)
       1 -59.5465       2 -42.0267       3 -41.9438       4 -41.9455       5 -44.6588
       6 -80.4550
 
 
 
 E-fermi :  -5.8753     XC(G=0):  -0.2132     alpha+bet : -0.0183


 k-point     1 :       0.0000    0.0000    0.0000
  band No.  band energies     occupation 
      1     -25.4670      2.00000
      2     -16.8800      2.00000
      3     -12.5094      2.00000
      4     -10.6421      2.00000
      5     -10.3655      2.00000
      6      -8.0440      2.00000
      7      -6.3395      2.00000
      8      -0.7820      0.00000
      9      -0.3083      0.00000
     10      -0.1046      0.00000
     11      -0.0748      0.00000


--------------------------------------------------------------------------------------------------------


 soft charge-density along one line, spin component           1
         0         1         2         3         4         5         6         7         8         9
 total charge-density along one line
 
 pseudopotential strength for first ion, spin component:           1
 10.295  13.692   0.003  -0.005   0.002  -0.008   0.014  -0.006
 13.692  18.210   0.004  -0.006   0.003  -0.011   0.018  -0.007
  0.003   0.004  -4.419   0.004  -0.002   8.650  -0.009   0.004
 -0.005  -0.006   0.004  -4.424   0.003  -0.009   8.661  -0.006
  0.002   0.003  -0.002   0.003  -4.418   0.004  -0.006   8.648
 -0.008  -0.011   8.650  -0.009   0.004 -19.074   0.019  -0.008
  0.014   0.018  -0.009   8.661  -0.006   0.019 -19.097   0.014
 -0.006  -0.007   0.004  -0.006   8.648  -0.008   0.014 -19.069
 total augmentation occupancy for first ion, spin component:           1
  7.304  -3.134  -0.018  -0.008   0.011   0.012  -0.029   0.014
 -3.134   1.384  -0.034   0.081  -0.037  -0.012   0.026  -0.012
 -0.018  -0.034   1.584   0.113  -0.053   0.125  -0.003   0.001
 -0.008   0.081   0.113   1.451   0.070  -0.003   0.131  -0.004
  0.011  -0.037  -0.053   0.070   1.606   0.001  -0.004   0.125
  0.012  -0.012   0.125  -0.003   0.001   0.011  -0.002   0.001
 -0.029   0.026  -0.003   0.131  -0.004  -0.002   0.013  -0.002
  0.014  -0.012   0.001  -0.004   0.125   0.001  -0.002   0.010


----------------------------------------- Iteration    1(  13)  ---------------------------------------


    POTLOK:  cpu time   26.9840: real time   26.9857
    SETDIJ:  cpu time   12.2520: real time   12.2517
     EDDAV:  cpu time   20.0480: real time   20.0520
       DOS:  cpu time    0.0000: real time    0.0000
    CHARGE:  cpu time   13.3040: real time   13.3039
    MIXING:  cpu time    0.7800: real time    0.7785
    --------------------------------------------
      LOOP:  cpu time   73.3720: real time   73.4186

 eigenvalue-minimisations  :    28
 total energy-change (2. order) :-0.5005247E-02  (-0.8136556E-04)
 number of electron      14.0000000 magnetization 
 augmentation part        0.8258731 magnetization 

 Broyden mixing:
  rms(total) = 0.19523E-02    rms(broyden)= 0.19521E-02
  rms(prec ) = 0.33238E-02
  weight for this iteration     100.00

 eigenvalues of (default mixing * dielectric matrix)
  average eigenvalue GAMMA=   1.9248
  4.6577  2.8145  2.3066  1.4410  1.1351  1.1351  0.9542  0.9542

 Free energy of the ion-electron system (eV)
  ---------------------------------------------------
  alpha Z        PSCENC =         0.04788262
  Ewald energy   TEWEN  =       522.17920661
  -Hartree energ DENC   =     -1052.34497071
  -exchange      EXHF   =         0.00000000
  -V(xc)+E(xc)   XCENC  =        53.31789461
  PAW double counting   =       937.00059816     -939.81893689
  entropy T*S    EENTRO =        -0.00000000
  eigenvalues    EBANDS =      -180.03240325
  atomic energy  EATOM  =       629.45057577
  Solvation  Ediel_sol  =         0.00000000
  ---------------------------------------------------
  free energy    TOTEN  =       -30.20015308 eV

  energy without entropy =      -30.20015308  energy(sigma->0) =      -30.20015308


--------------------------------------------------------------------------------------------------------




 average (electrostatic) potential at core
  the test charge radii are     0.6991  0.5201  0.7215
  (the norm of the test charge is              1.0000)
       1 -59.5252       2 -41.9836       3 -41.9031       4 -41.9037       5 -44.6187
       6 -80.4289
 
 
 
 E-fermi :  -5.8244     XC(G=0):  -0.2003     alpha+bet : -0.0183


 k-point     1 :       0.0000    0.0000    0.0000
  band No.  band energies     occupation 
      1     -25.4379      2.00000
      2     -16.8454      2.00000
      3     -12.4775      2.00000
      4     -10.6081      2.00000
      5     -10.3316      2.00000
      6      -8.0090      2.00000
      7      -6.3068      2.00000
      8      -0.6699      0.00000
      9      -0.2149      0.00000
     10      -0.0828      0.00000
     11      -0.0136      0.00000


--------------------------------------------------------------------------------------------------------


 soft charge-density along one line, spin component           1
         0         1         2         3         4         5         6         7         8         9
 total charge-density along one line
 
 pseudopotential strength for first ion, spin component:           1
 10.293  13.690   0.003  -0.005   0.002  -0.008   0.014  -0.006
 13.690  18.207   0.004  -0.006   0.003  -0.011   0.018  -0.007
  0.003   0.004  -4.418   0.004  -0.002   8.648  -0.009   0.004
 -0.005  -0.006   0.004  -4.423   0.003  -0.009   8.659  -0.006
  0.002   0.003  -0.002   0.003  -4.417   0.004  -0.006   8.646
 -0.008  -0.011   8.648  -0.009   0.004 -19.070   0.019  -0.008
  0.014   0.018  -0.009   8.659  -0.006   0.019 -19.093   0.014
 -0.006  -0.007   0.004  -0.006   8.646  -0.008   0.014 -19.065
 total augmentation occupancy for first ion, spin component:           1
  7.299  -3.131  -0.018  -0.010   0.012   0.012  -0.029   0.014
 -3.131   1.383  -0.035   0.082  -0.038  -0.012   0.026  -0.012
 -0.018  -0.035   1.585   0.113  -0.053   0.125  -0.003   0.001
 -0.010   0.082   0.113   1.451   0.070  -0.003   0.131  -0.004
  0.012  -0.038  -0.053   0.070   1.606   0.001  -0.004   0.125
  0.012  -0.012   0.125  -0.003   0.001   0.011  -0.002   0.001
 -0.029   0.026  -0.003   0.131  -0.004  -0.002   0.013  -0.002
  0.014  -0.012   0.001  -0.004   0.125   0.001  -0.002   0.010


----------------------------------------- Iteration    1(  14)  ---------------------------------------


    POTLOK:  cpu time   27.0000: real time   27.0004
    SETDIJ:  cpu time   12.2360: real time   12.2376
     EDDAV:  cpu time   21.1720: real time   21.1731
       DOS:  cpu time    0.0000: real time    0.0000
    CHARGE:  cpu time   13.3120: real time   13.3146
    MIXING:  cpu time    0.8040: real time    0.8036
    --------------------------------------------
      LOOP:  cpu time   74.5240: real time   74.6021

 eigenvalue-minimisations  :    30
 total energy-change (2. order) :-0.2730536E-02  (-0.3045940E-04)
 number of electron      14.0000000 magnetization 
 augmentation part        0.8259520 magnetization 

 Broyden mixing:
  rms(total) = 0.14638E-02    rms(broyden)= 0.14636E-02
  rms(prec ) = 0.22357E-02
  weight for this iteration     100.00

 eigenvalues of (default mixing * dielectric matrix)
  average eigenvalue GAMMA=   2.0449
  5.6594  2.9952  2.1074  2.1074  1.4544  0.9271  1.0977  1.0280  1.0280

 Free energy of the ion-electron system (eV)
  ---------------------------------------------------
  alpha Z        PSCENC =         0.04788262
  Ewald energy   TEWEN  =       522.17920661
  -Hartree energ DENC   =     -1052.56030918
  -exchange      EXHF   =         0.00000000
  -V(xc)+E(xc)   XCENC  =        53.31564806
  PAW double counting   =       936.84779705     -939.66534223
  entropy T*S    EENTRO =        -0.00000000
  eigenvalues    EBANDS =      -179.81834233
  atomic energy  EATOM  =       629.45057577
  Solvation  Ediel_sol  =         0.00000000
  ---------------------------------------------------
  free energy    TOTEN  =       -30.20288362 eV

  energy without entropy =      -30.20288362  energy(sigma->0) =      -30.20288362


--------------------------------------------------------------------------------------------------------




 average (electrostatic) potential at core
  the test charge radii are     0.6991  0.5201  0.7215
  (the norm of the test charge is              1.0000)
       1 -59.5047       2 -41.9672       3 -41.8874       4 -41.8880       5 -44.6030
       6 -80.4190
 
 
 
 E-fermi :  -5.7921     XC(G=0):  -0.1889     alpha+bet : -0.0183


 k-point     1 :       0.0000    0.0000    0.0000
  band No.  band energies     occupation 
      1     -25.4240      2.00000
      2     -16.8286      2.00000
      3     -12.4624      2.00000
      4     -10.5914      2.00000
      5     -10.3154      2.00000
      6      -7.9942      2.00000
      7      -6.2931      2.00000
      8      -0.6312      0.00000
      9      -0.1744      0.00000
     10      -0.0657      0.00000
     11       0.0242      0.00000


--------------------------------------------------------------------------------------------------------


 soft charge-density along one line, spin component           1
         0         1         2         3         4         5         6         7         8         9
 total charge-density along one line
 
 pseudopotential strength for first ion, spin component:           1
 10.292  13.689   0.003  -0.005   0.002  -0.008   0.014  -0.006
 13.689  18.205   0.004  -0.006   0.003  -0.011   0.018  -0.007
  0.003   0.004  -4.417   0.004  -0.002   8.646  -0.009   0.004
 -0.005  -0.006   0.004  -4.422   0.003  -0.009   8.657  -0.006
  0.002   0.003  -0.002   0.003  -4.416   0.004  -0.006   8.644
 -0.008  -0.011   8.646  -0.009   0.004 -19.066   0.019  -0.008
  0.014   0.018  -0.009   8.657  -0.006   0.019 -19.089   0.014
 -0.006  -0.007   0.004  -0.006   8.644  -0.008   0.014 -19.061
 total augmentation occupancy for first ion, spin component:           1
  7.297  -3.130  -0.018  -0.009   0.012   0.012  -0.029   0.014
 -3.130   1.382  -0.035   0.082  -0.038  -0.012   0.026  -0.012
 -0.018  -0.035   1.584   0.113  -0.053   0.125  -0.003   0.001
 -0.009   0.082   0.113   1.450   0.070  -0.003   0.131  -0.004
  0.012  -0.038  -0.053   0.070   1.606   0.001  -0.004   0.125
  0.012  -0.012   0.125  -0.003   0.001   0.011  -0.002   0.001
 -0.029   0.026  -0.003   0.131  -0.004  -0.002   0.013  -0.002
[...]
     22.234131  0.234124  0.021725    -0.032716   -0.250952   -0.007269  
     23.510150  1.829651 23.810375    -0.325112   -0.158046    0.621514  
     23.832193  0.913023 23.816502     0.153521   -0.204496   -0.131794  
 
   9 f  =   33.859056 THz   212.742725 2PiTHz 1129.416511 cm-1   140.029851 meV
             X         Y         Z           dx          dy          dz
     23.337380  0.270086 24.995966     0.342313    0.121596    0.209659  
     23.715798 24.240396 24.972646    -0.203174   -0.071693   -0.124785  
     23.701070  0.752908  0.919954    -0.358369   -0.263752    0.400379  
     22.234131  0.234124  0.021725     0.082964    0.165724   -0.568597  
     23.510150  1.829651 23.810375    -0.007390   -0.002610   -0.004005  
     23.832193  0.913023 23.816502    -0.175086   -0.062223   -0.107417  
 
  10 f  =   31.513308 THz   198.003955 2PiTHz 1051.170783 cm-1   130.328614 meV
             X         Y         Z           dx          dy          dz
     23.337380  0.270086 24.995966     0.251658    0.020678   -0.422933  
     23.715798 24.240396 24.972646    -0.172931   -0.093687    0.336078  
     23.701070  0.752908  0.919954    -0.015700    0.279686   -0.220784  
     22.234131  0.234124  0.021725     0.053583    0.304258   -0.178669  
     23.510150  1.829651 23.810375    -0.228077   -0.098463    0.429213  
     23.832193  0.913023 23.816502    -0.127261   -0.115832    0.274963  
 
  11 f  =   30.113126 THz   189.206351 2PiTHz 1004.465732 cm-1   124.537923 meV
             X         Y         Z           dx          dy          dz
     23.337380  0.270086 24.995966    -0.121279   -0.350925    0.400880  
     23.715798 24.240396 24.972646    -0.154183   -0.140635    0.332676  
     23.701070  0.752908  0.919954    -0.054783    0.127992   -0.009368  
     22.234131  0.234124  0.021725    -0.034453    0.135191    0.002818  
     23.510150  1.829651 23.810375    -0.188916   -0.002064    0.309667  
     23.832193  0.913023 23.816502     0.213114    0.273946   -0.506183  
 
  12 f  =    8.668786 THz    54.467587 2PiTHz  289.159556 cm-1    35.851229 meV
             X         Y         Z           dx          dy          dz
     23.337380  0.270086 24.995966     0.013134    0.003665    0.007589  
     23.715798 24.240396 24.972646     0.239088    0.084301    0.145794  
     23.701070  0.752908  0.919954    -0.178437    0.172883   -0.019844  
     22.234131  0.234124  0.021725     0.006069   -0.234698   -0.085746  
     23.510150  1.829651 23.810375     0.696222    0.247531    0.427345  
     23.832193  0.913023 23.816502    -0.201748   -0.071464   -0.123317  
 
  13 f  =    1.198940 THz     7.533164 2PiTHz   39.992340 cm-1     4.958420 meV
             X         Y         Z           dx          dy          dz
     23.337380  0.270086 24.995966    -0.047748    0.094228    0.026435  
     23.715798 24.240396 24.972646    -0.448469   -0.127509   -0.215915  
     23.701070  0.752908  0.919954     0.395574   -0.248735   -0.009375  
     22.234131  0.234124  0.021725    -0.023029    0.483669    0.251015  
     23.510150  1.829651 23.810375     0.382083    0.118627    0.185486  
     23.832193  0.913023 23.816502    -0.044218   -0.083453   -0.069607  
 
  14 f  =    0.831199 THz     5.222579 2PiTHz   27.725823 cm-1     3.437565 meV
             X         Y         Z           dx          dy          dz
     23.337380  0.270086 24.995966    -0.549177    0.079984   -0.190276  
     23.715798 24.240396 24.972646    -0.217395   -0.000507    0.029800  
     23.701070  0.752908  0.919954    -0.327682    0.003113    0.022171  
     22.234131  0.234124  0.021725    -0.166204    0.091637   -0.292753  
     23.510150  1.829651 23.810375     0.193117    0.008213   -0.023306  
     23.832193  0.913023 23.816502     0.545818   -0.044848    0.200543  
 
  15 f  =    0.779320 THz     4.896615 2PiTHz   25.995330 cm-1     3.223011 meV
             X         Y         Z           dx          dy          dz
     23.337380  0.270086 24.995966    -0.028619    0.502278    0.281617  
     23.715798 24.240396 24.972646    -0.023763    0.134012    0.311125  
     23.701070  0.752908  0.919954    -0.002750    0.344916   -0.025459  
     22.234131  0.234124  0.021725    -0.008849    0.167121    0.087006  
     23.510150  1.829651 23.810375     0.017920   -0.121776   -0.265885  
     23.832193  0.913023 23.816502     0.015338   -0.501479   -0.243935  
 
  16 f/i=    0.007653 THz     0.048088 2PiTHz    0.255293 cm-1     0.031652 meV
             X         Y         Z           dx          dy          dz
     23.337380  0.270086 24.995966    -0.388089   -0.179527    0.437733  
     23.715798 24.240396 24.972646    -0.113554   -0.052322    0.123777  
     23.701070  0.752908  0.919954    -0.110179   -0.054209    0.126852  
     22.234131  0.234124  0.021725    -0.112001   -0.050172    0.127487  
     23.510150  1.829651 23.810375    -0.111005   -0.049686    0.129208  
     23.832193  0.913023 23.816502    -0.449560   -0.200740    0.508157  
 
  17 f/i=    0.033360 THz     0.209608 2PiTHz    1.112772 cm-1     0.137966 meV
             X         Y         Z           dx          dy          dz
     23.337380  0.270086 24.995966    -0.385360   -0.169324   -0.415180  
     23.715798 24.240396 24.972646    -0.113944   -0.049862   -0.120140  
     23.701070  0.752908  0.919954    -0.101528   -0.046955   -0.124596  
     22.234131  0.234124  0.021725    -0.111045   -0.046061   -0.109560  
     23.510150  1.829651 23.810375    -0.118007   -0.052794   -0.125960  
     23.832193  0.913023 23.816502    -0.481825   -0.214620   -0.505233  
 
  18 f/i=    0.071376 THz     0.448467 2PiTHz    2.380839 cm-1     0.295186 meV
             X         Y         Z           dx          dy          dz
     23.337380  0.270086 24.995966     0.221007   -0.529964    0.001509  
     23.715798 24.240396 24.972646     0.043452   -0.160524    0.006630  
     23.701070  0.752908  0.919954     0.071310   -0.155301   -0.001285  
     22.234131  0.234124  0.021725     0.063006   -0.130957   -0.001804  
     23.510150  1.829651 23.810375     0.097025   -0.162600   -0.007457  
     23.832193  0.913023 23.816502     0.316306   -0.675465   -0.007360  
 
 Eigenvectors after division by SQRT(mass)
 
 Eigenvectors and eigenvalues of the dynamical matrix
 ----------------------------------------------------
 
 
   1 f  =  112.583205 THz   707.381142 2PiTHz 3755.371389 cm-1   465.606878 meV
             X         Y         Z           dx          dy          dz
     23.337380  0.270086 24.995966     0.001586   -0.001664   -0.001622  
     23.715798 24.240396 24.972646    -0.006390    0.013196    0.002810  
     23.701070  0.752908  0.919954     0.001780    0.002533   -0.001824  
     22.234131  0.234124  0.021725    -0.000336    0.001787   -0.003099  
     23.510150  1.829651 23.810375    -0.315042    0.917592   -0.018123  
     23.832193  0.913023 23.816502     0.018808   -0.057196    0.002482  
 
   2 f  =   91.522670 THz   575.053898 2PiTHz 3052.867583 cm-1   378.507476 meV
             X         Y         Z           dx          dy          dz
     23.337380  0.270086 24.995966    -0.035759    0.076504    0.014141  
     23.715798 24.240396 24.972646     0.322703   -0.860727   -0.029913  
     23.701070  0.752908  0.919954    -0.076742   -0.070512   -0.147994  
     22.234131  0.234124  0.021725     0.180201    0.020162    0.008988  
     23.510150  1.829651 23.810375    -0.008790    0.013116    0.006770  
     23.832193  0.913023 23.816502     0.000758   -0.001308   -0.000481  
 
   3 f  =   89.209102 THz   560.517318 2PiTHz 2975.695246 cm-1   368.939322 meV
             X         Y         Z           dx          dy          dz
     23.337380  0.270086 24.995966    -0.072716   -0.025738   -0.044465  
     23.715798 24.240396 24.972646    -0.023076   -0.007389   -0.013947  
     23.701070  0.752908  0.919954     0.215931    0.313677    0.553134  
     22.234131  0.234124  0.021725     0.672987    0.000212   -0.009764  
     23.510150  1.829651 23.810375     0.003518    0.001269    0.002171  
     23.832193  0.913023 23.816502     0.000253    0.000086    0.000155  
 
   4 f  =   87.665138 THz   550.816306 2PiTHz 2924.194147 cm-1   362.553997 meV
             X         Y         Z           dx          dy          dz
     23.337380  0.270086 24.995966     0.026143   -0.003456   -0.040922  
     23.715798 24.240396 24.972646     0.101580   -0.266127   -0.012286  
     23.701070  0.752908  0.919954     0.238041    0.300529    0.546981  
     22.234131  0.234124  0.021725    -0.665951   -0.019790   -0.007572  
     23.510150  1.829651 23.810375     0.000313    0.003973   -0.002824  
     23.832193  0.913023 23.816502     0.000750    0.001432   -0.002048  
 
   5 f  =   43.724840 THz   274.731271 2PiTHz 1458.503616 cm-1   180.831467 meV
             X         Y         Z           dx          dy          dz
     23.337380  0.270086 24.995966     0.026563   -0.022444   -0.030335  
     23.715798 24.240396 24.972646     0.158511    0.057520   -0.293724  
     23.701070  0.752908  0.919954    -0.610977    0.125916    0.170855  
     22.234131  0.234124  0.021725     0.004833    0.342781    0.548289  
     23.510150  1.829651 23.810375    -0.055695   -0.032398    0.109538  
     23.832193  0.913023 23.816502     0.011517   -0.014016   -0.010660  
 
   6 f  =   43.324619 THz   272.216610 2PiTHz 1445.153694 cm-1   179.176287 meV
             X         Y         Z           dx          dy          dz
     23.337380  0.270086 24.995966    -0.046769   -0.016643   -0.028654  
     23.715798 24.240396 24.972646     0.579518    0.204886    0.354321  
     23.701070  0.752908  0.919954     0.135651   -0.430466    0.153800  
     22.234131  0.234124  0.021725    -0.032232    0.468441   -0.089699  
     23.510150  1.829651 23.810375    -0.008394   -0.002964   -0.005195  
     23.832193  0.913023 23.816502    -0.007049   -0.002492   -0.004317  
 
   7 f  =   42.682650 THz   268.183000 2PiTHz 1423.739914 cm-1   176.521315 meV
             X         Y         Z           dx          dy          dz
     23.337380  0.270086 24.995966    -0.027163   -0.053480    0.075346  
     23.715798 24.240396 24.972646     0.287068    0.092287   -0.523035  
     23.701070  0.752908  0.919954     0.160536    0.405352   -0.262132  
     22.234131  0.234124  0.021725    -0.030611    0.337400   -0.379354  
     23.510150  1.829651 23.810375    -0.006075   -0.012522    0.017078  
     23.832193  0.913023 23.816502    -0.005289   -0.011254    0.015143  
 
   8 f  =   39.767010 THz   249.863491 2PiTHz 1326.484620 cm-1   164.463191 meV
             X         Y         Z           dx          dy          dz
     23.337380  0.270086 24.995966    -0.042051    0.104092    0.008228  
     23.715798 24.240396 24.972646     0.112964    0.168172   -0.280741  
     23.701070  0.752908  0.919954     0.135803   -0.191513    0.094951  
     22.234131  0.234124  0.021725    -0.032716   -0.250952   -0.007269  
     23.510150  1.829651 23.810375    -0.325112   -0.158046    0.621514  
     23.832193  0.913023 23.816502     0.038380   -0.051124   -0.032948  
 
   9 f  =   33.859056 THz   212.742725 2PiTHz 1129.416511 cm-1   140.029851 meV
             X         Y         Z           dx          dy          dz
     23.337380  0.270086 24.995966     0.098772    0.035086    0.060496  
     23.715798 24.240396 24.972646    -0.203174   -0.071693   -0.124785  
     23.701070  0.752908  0.919954    -0.358369   -0.263752    0.400379  
     22.234131  0.234124  0.021725     0.082964    0.165724   -0.568597  
     23.510150  1.829651 23.810375    -0.007390   -0.002610   -0.004005  
     23.832193  0.913023 23.816502    -0.043771   -0.015556   -0.026854  
 
  10 f  =   31.513308 THz   198.003955 2PiTHz 1051.170783 cm-1   130.328614 meV
             X         Y         Z           dx          dy          dz
     23.337380  0.270086 24.995966     0.072614    0.005966   -0.122034  
     23.715798 24.240396 24.972646    -0.172931   -0.093687    0.336078  
     23.701070  0.752908  0.919954    -0.015700    0.279686   -0.220784  
     22.234131  0.234124  0.021725     0.053583    0.304258   -0.178669  
     23.510150  1.829651 23.810375    -0.228077   -0.098463    0.429213  
     23.832193  0.913023 23.816502    -0.031815   -0.028958    0.068741  
 
  11 f  =   30.113126 THz   189.206351 2PiTHz 1004.465732 cm-1   124.537923 meV
             X         Y         Z           dx          dy          dz
     23.337380  0.270086 24.995966    -0.034994   -0.101257    0.115671  
     23.715798 24.240396 24.972646    -0.154183   -0.140635    0.332676  
     23.701070  0.752908  0.919954    -0.054783    0.127992   -0.009368  
     22.234131  0.234124  0.021725    -0.034453    0.135191    0.002818  
     23.510150  1.829651 23.810375    -0.188916   -0.002064    0.309667  
     23.832193  0.913023 23.816502     0.053278    0.068486   -0.126546  
 
  12 f  =    8.668786 THz    54.467587 2PiTHz  289.159556 cm-1    35.851229 meV
             X         Y         Z           dx          dy          dz
     23.337380  0.270086 24.995966     0.003790    0.001058    0.002190  
     23.715798 24.240396 24.972646     0.239088    0.084301    0.145794  
     23.701070  0.752908  0.919954    -0.178437    0.172883   -0.019844  
     22.234131  0.234124  0.021725     0.006069   -0.234698   -0.085746  
     23.510150  1.829651 23.810375     0.696222    0.247531    0.427345  
     23.832193  0.913023 23.816502    -0.050437   -0.017866   -0.030829  
 
  13 f  =    1.198940 THz     7.533164 2PiTHz   39.992340 cm-1     4.958420 meV
             X         Y         Z           dx          dy          dz
     23.337380  0.270086 24.995966    -0.013777    0.027189    0.007628  
     23.715798 24.240396 24.972646    -0.448469   -0.127509   -0.215915  
     23.701070  0.752908  0.919954     0.395574   -0.248735   -0.009375  
     22.234131  0.234124  0.021725    -0.023029    0.483669    0.251015  
     23.510150  1.829651 23.810375     0.382083    0.118627    0.185486  
     23.832193  0.913023 23.816502    -0.011054   -0.020863   -0.017402  
 
  14 f  =    0.831199 THz     5.222579 2PiTHz   27.725823 cm-1     3.437565 meV
             X         Y         Z           dx          dy          dz
     23.337380  0.270086 24.995966    -0.158461    0.023079   -0.054903  
     23.715798 24.240396 24.972646    -0.217395   -0.000507    0.029800  
     23.701070  0.752908  0.919954    -0.327682    0.003113    0.022171  
     22.234131  0.234124  0.021725    -0.166204    0.091637   -0.292753  
     23.510150  1.829651 23.810375     0.193117    0.008213   -0.023306  
     23.832193  0.913023 23.816502     0.136454   -0.011212    0.050136  
 
  15 f  =    0.779320 THz     4.896615 2PiTHz   25.995330 cm-1     3.223011 meV
             X         Y         Z           dx          dy          dz
     23.337380  0.270086 24.995966    -0.008258    0.144929    0.081259  
     23.715798 24.240396 24.972646    -0.023763    0.134012    0.311125  
     23.701070  0.752908  0.919954    -0.002750    0.344916   -0.025459  
     22.234131  0.234124  0.021725    -0.008849    0.167121    0.087006  
     23.510150  1.829651 23.810375     0.017920   -0.121776   -0.265885  
     23.832193  0.913023 23.816502     0.003835   -0.125370   -0.060984  
 
  16 f/i=    0.007653 THz     0.048088 2PiTHz    0.255293 cm-1     0.031652 meV
             X         Y         Z           dx          dy          dz
     23.337380  0.270086 24.995966    -0.111980   -0.051801    0.126305  
     23.715798 24.240396 24.972646    -0.113554   -0.052322    0.123777  
     23.701070  0.752908  0.919954    -0.110179   -0.054209    0.126852  
     22.234131  0.234124  0.021725    -0.112001   -0.050172    0.127487  
     23.510150  1.829651 23.810375    -0.111005   -0.049686    0.129208  
     23.832193  0.913023 23.816502    -0.112390   -0.050185    0.127039  
 
  17 f/i=    0.033360 THz     0.209608 2PiTHz    1.112772 cm-1     0.137966 meV
             X         Y         Z           dx          dy          dz
     23.337380  0.270086 24.995966    -0.111193   -0.048857   -0.119797  
     23.715798 24.240396 24.972646    -0.113944   -0.049862   -0.120140  
     23.701070  0.752908  0.919954    -0.101528   -0.046955   -0.124596  
     22.234131  0.234124  0.021725    -0.111045   -0.046061   -0.109560  
     23.510150  1.829651 23.810375    -0.118007   -0.052794   -0.125960  
     23.832193  0.913023 23.816502    -0.120456   -0.053655   -0.126308  
 
  18 f/i=    0.071376 THz     0.448467 2PiTHz    2.380839 cm-1     0.295186 meV
             X         Y         Z           dx          dy          dz
     23.337380  0.270086 24.995966     0.063770   -0.152917    0.000435  
     23.715798 24.240396 24.972646     0.043452   -0.160524    0.006630  
     23.701070  0.752908  0.919954     0.071310   -0.155301   -0.001285  
     22.234131  0.234124  0.021725     0.063006   -0.130957   -0.001804  
     23.510150  1.829651 23.810375     0.097025   -0.162600   -0.007457  
     23.832193  0.913023 23.816502     0.079076   -0.168866   -0.001840  
 


--------------------------------------------------------------------------------------------------------




 MACROSCOPIC STATIC DIELECTRIC TENSOR IONIC CONTRIBUTION
 ------------------------------------------------------
           0.037649     0.011672     0.024045
           0.011672     0.021283    -0.004073
           0.024045    -0.004073     0.023249
 ------------------------------------------------------


 ELASTIC MODULI IONIC CONTR (kBar)
 Direction    XX          YY          ZZ          XY          YZ          ZX
 --------------------------------------------------------------------------------
 XX          -4.4930     -0.8569     -0.7319      0.0295      0.0502      0.2580
 YY          -0.8569     -8.2394     -1.2212      1.6666      0.7484      0.0266
 ZZ          -0.7319     -1.2212     -5.8186     -0.9689      0.9468      0.6355
 XY           0.0295      1.6666     -0.9689     -1.7924      0.4000      0.1446
 YZ           0.0502      0.7484      0.9468      0.4000     -2.5111     -0.7403
 ZX           0.2580      0.0266      0.6355      0.1446     -0.7403     -1.5273
 --------------------------------------------------------------------------------


 PIEZOELECTRIC TENSOR IONIC CONTR  for field in x, y, z        (C/m^2)
          XX          YY          ZZ          XY          YZ          ZX
  --------------------------------------------------------------------------------
  x    -0.00007     0.00017     0.00013     0.00011     0.00001    -0.00025
  y    -0.00004     0.00006     0.00025     0.00027    -0.00037    -0.00000
  z     0.00008    -0.00004    -0.00043    -0.00003     0.00046     0.00017


--------------------------------------------------------------------------------------------------------


     LOOP+:  cpu time**********: real time**********
    4ORBIT:  cpu time    0.0000: real time    0.0747

 total amount of memory used by VASP on root node 12427524. kBytes
========================================================================

   base      :      30000. kBytes
   nonl-proj :     114220. kBytes
   fftplans  :    8291740. kBytes
   grid      :    3921739. kBytes
   one-center:         18. kBytes
   wavefun   :      69807. kBytes
 
  
  
 General timing and accounting informations for this job:
 ========================================================
  
                  Total CPU time used (sec):   133097.875
                            User time (sec):   130190.396
                          System time (sec):     2907.472
                         Elapsed time (sec):   133188.811
  
                   Maximum memory used (kb):    22846708.
                   Average memory used (kb):           0.
  
                          Minor page faults:    375778874
                          Major page faults:         3598
                 Voluntary context switches:        11042
