# epsilon and Z* of atoms 1 2 3 4 5 6
   1.00261200   0.00005600  -0.00009900   0.00005600   1.00274200  -0.00019100  -0.00009900  -0.00019100   1.00284400
   0.35571000   0.11614000  -0.11023000   0.12262000   0.35801000  -0.21689000  -0.11403000  -0.20633000   0.63514000
   0.04307000   0.04091000   0.02192000   0.06992000  -0.10486000  -0.01268000   0.00513000   0.03473000   0.04245000
   0.02110000  -0.04210000  -0.03116000  -0.05443000   0.00031000  -0.02049000  -0.06301000  -0.08988000  -0.18754000
  -0.20578000  -0.01031000   0.00414000  -0.05159000   0.04097000   0.04293000   0.06695000   0.02470000  -0.00119000
   0.27006000   0.07834000   0.05068000   0.07368000   0.15066000  -0.01693000   0.05332000  -0.02447000   0.25614000
  -0.48341000  -0.18298000   0.06465000  -0.16022000  -0.44434000   0.22407000   0.05162000   0.26121000  -0.74428000
