# epsilon and Z* of atoms 1 3 5 9 11
   2.32336000  -0.00000200   0.00000000  -0.00000200   2.32336100   0.00000000   0.00000000   0.00000000   2.71253100
   1.36755000   1.08273000  -0.00001000   1.08273000   1.36755000  -0.00000000   0.00003000   0.00002000   2.80407000
  -0.96087000  -0.15217000  -0.00004000  -0.15217000  -0.96087000  -0.00004000  -0.00001000  -0.00003000  -2.63177000
  -1.11976000  -0.47717000  -0.24393000  -0.47716000  -1.11977000  -0.24393000  -0.25254000  -0.25257000  -1.04109000
   0.31995000   0.07999000   0.03481000   0.07999000   0.31995000  -0.03480000   0.10105000  -0.10105000   0.68882000
   0.59834000   0.30001000  -0.18266000   0.30000000   0.59834000  -0.18266000  -0.20917000  -0.20918000   0.26878000
