576  
16   

1    
  0.0066146109591891   0.0000000000000000   0.0074997947877642
  -0.3128275800   -0.1792678200   -0.5778720900
   0.0014004400    0.0009679500    0.0001715900
   0.0005007900    0.0003404100    0.0009745400
   0.0006650200    0.0011030000    0.0002960900
   0.0010527900    0.0010526900    0.0010088200
   0.0000510000    0.0000191300    0.0009549800
   0.0000410900    0.0002079300    0.0008528900
   0.0000480000    0.0000210100    0.0009541100
   0.0002226300    0.0002225000    0.0017464200
   0.0004447400    0.0004155700    0.0075761100
   0.0003639500    0.0002139700    0.0032731900
  -0.0002276600   -0.0002314300    0.0018533900
   0.0001360700    0.0002872900    0.0032558600
   0.0005348900    0.0005321800    0.0022974000
   0.0000228000    0.0000691200    0.0022280500
  -0.0003096300   -0.0003046500    0.0018706100
   0.0000777600    0.0000140200    0.0023443600
   0.0000126800    0.0000099000    0.0020375400
  -0.0001616000   -0.0001571100    0.0040648600
  -0.0001151000   -0.0001263400    0.0030044600
   0.0001260200    0.0000913000    0.0027901400
  -0.0001496200   -0.0001374600    0.0029924000
   0.0000182300    0.0000169700    0.0026335900
   0.0000492900    0.0000191100    0.0026197300
   0.0000677200    0.0001033300    0.0028027400
   0.0000215800    0.0000470100    0.0026468200
   0.0001380000    0.0001367100    0.0025269600
   0.0004601800    0.0004318200    0.0075625000
  -0.0007345800   -0.0007929700    0.0023031500
   0.0008661800    0.0007718800    0.0028246700
  -0.0008675500   -0.0008080700    0.0023681900
   0.0001266800    0.0001240100    0.0019365200
   0.0001175500   -0.0000253800    0.0023096900
   0.0006974600    0.0007927700    0.0027623800
  -0.0000171500    0.0001090200    0.0022616300
   0.0004198900    0.0004171900    0.0023980300
  -0.0051424800    0.0048043800   -0.0115412600
   0.0001795800   -0.0001403200   -0.0025609100
   0.0013682300    0.0016950800   -0.0057796500
  -0.0014960700   -0.0011628300   -0.0147803300
   0.0005266900   -0.0004525200   -0.0028664100
   0.0049917100   -0.0053296800   -0.0089841900
  -0.0004152900    0.0004714800   -0.0028531100
   0.0000532200    0.0000006900   -0.0025863700
  -0.0001023000    0.0001237300   -0.0025748500
   0.0035960800   -0.0030052000   -0.0001346800
   0.0004243000   -0.0004012600   -0.0021447900
   0.0003122900   -0.0002770200   -0.0030497300
   0.0009286900    0.0003582000    0.0022078000
   0.0004171800   -0.0003295900   -0.0021389900
  -0.0023361800    0.0029269400   -0.0006950600
  -0.0002914500    0.0003623300   -0.0021102900
   0.0000632900    0.0000001800   -0.0022160800
  -0.0003623500    0.0003688700   -0.0021738900
   0.0002476600   -0.0002790700   -0.0009317400
   0.0001751300   -0.0001678400   -0.0016385800
  -0.0000582200   -0.0000271200   -0.0012039000
   0.0000085700    0.0000401700   -0.0007220800
   0.0001380600   -0.0001062200   -0.0016058000
  -0.0002975000    0.0002661200   -0.0009931500
  -0.0000941900    0.0001186400   -0.0015948200
   0.0000332600   -0.0000000100   -0.0017949100
  -0.0001555800    0.0001555100   -0.0016485600
  -0.0004750500    0.0004524000   -0.0008579200
   0.0000388600   -0.0000171800   -0.0018534300
   0.0000490300    0.0000703600   -0.0004015300
  -0.0000801100   -0.0000581900   -0.0012128900
   0.0001930400   -0.0001837900   -0.0019908500
   0.0004435400   -0.0004661600   -0.0007492500
  -0.0001751000    0.0001783100   -0.0019955600
   0.0000257200    0.0000003600   -0.0020531000
  -0.0000083100    0.0000239800   -0.0018479400
   0.0009999600    0.0002945800    0.0075826800
  -0.0001741300    0.0000182100    0.0019229600
   0.0014620700    0.0015037400    0.0054577600
  -0.0058210100   -0.0057872700    0.0113040000
  -0.0003688900   -0.0000518400    0.0021290700
  -0.0004170600    0.0017067100    0.0064521600
  -0.0000236700   -0.0003061800    0.0021203200
  -0.0001565800   -0.0001359300    0.0018915700
   0.0000456200   -0.0001116300    0.0019312700
  -0.0006822400    0.0007511000   -0.0003620400
  -0.0001384000    0.0000981200    0.0014996400
   0.0002984500    0.0003646800    0.0021198800
  -0.0002554000   -0.0001920100   -0.0018520100
  -0.0002016200   -0.0000211000    0.0014871000
   0.0006021900   -0.0005334100    0.0002894900
  -0.0000102300   -0.0001674400    0.0014616200
  -0.0001024300   -0.0000834700    0.0015661000
   0.0001086900   -0.0001042100    0.0015254500
   0.0000122800    0.0000574800    0.0003282300
  -0.0000655500    0.0000146300    0.0010626900
  -0.0000456800   -0.0000541900    0.0006648800
   0.0000975900    0.0000889400    0.0002109300
  -0.0000594200    0.0000218100    0.0010375200
   0.0000628600    0.0000066600    0.0003877500
   0.0000271800   -0.0000460100    0.0010281300
  -0.0000475200   -0.0000379900    0.0012048300
   0.0000197700   -0.0000521700    0.0010731900
   0.0004917300   -0.0003169700    0.0000204800
  -0.0000841900   -0.0000598800    0.0013161400
  -0.0007414400   -0.0007572900    0.0001238600
   0.0009275500    0.0009114400    0.0011648300
  -0.0001234600    0.0000527100    0.0014220000
  -0.0003070100    0.0004813800   -0.0000987000
   0.0000667600   -0.0000980900    0.0014296400
  -0.0000825200   -0.0000718600    0.0014506100
  -0.0000461400   -0.0000589400    0.0013080000
   0.0592435400    0.0086995900    0.3028012300
  -0.0003096700    0.0002262400    0.0001362500
  -0.0006499800    0.0001089300   -0.0005869400
   0.0002968100   -0.0002007200    0.0000296400
  -0.0002757600   -0.0002684500   -0.0005722300
  -0.0004424300    0.0004076100   -0.0005924300
   0.0001790900   -0.0005422100   -0.0004820100
   0.0003559700   -0.0003905000   -0.0005766800
  -0.0001190300   -0.0001112900   -0.0011558000
   0.0021061800    0.0020019200   -0.0074789200
  -0.0008154300    0.0004882400   -0.0023596100
   0.0000286300    0.0001288600   -0.0011776500
   0.0005532400   -0.0007942300   -0.0023161600
  -0.0002750700   -0.0002621500   -0.0016865800
   0.0001258800   -0.0001621000   -0.0015131900
   0.0001941900    0.0000493600   -0.0012180000
  -0.0002340800    0.0001980500   -0.0016054300
  -0.0000215600   -0.0000082600   -0.0013899800
   0.0000771900    0.0000487200   -0.0034697500
  -0.0000995300    0.0001159800   -0.0023280500
  -0.0000263200    0.0000143500   -0.0021036300
   0.0001291200   -0.0000922900   -0.0023132200
  -0.0000429400   -0.0000375200   -0.0020000000
   0.0000180500   -0.0000434900   -0.0019360000
   0.0000274900   -0.0000189700   -0.0021189400
  -0.0000576900    0.0000322800   -0.0019605100
  -0.0000306400   -0.0000251500   -0.0018597200
  -0.0001095700   -0.0001875900   -0.0072092300
   0.0002080900    0.0001417000   -0.0016962700
  -0.0003127700   -0.0000535800   -0.0021484000
   0.0001620200    0.0002230800   -0.0017548200
  -0.0000125400   -0.0000078600   -0.0013408400
  -0.0001439700    0.0001149700   -0.0016795900
  -0.0000332400   -0.0002978000   -0.0020904500
   0.0001056700   -0.0001346100   -0.0016418900
  -0.0001183400   -0.0001135800   -0.0017587600
   0.1630964900    0.1313642900    0.1771567600
  -0.0007256900   -0.0002026600   -0.0010281600
  -0.0003967500   -0.0001036900   -0.0008341000
  -0.0000387700   -0.0005747600   -0.0009822100
  -0.0006174400   -0.0006059900   -0.0012408200
   0.0000245700   -0.0000755900   -0.0009644000
   0.0000611600   -0.0001353700   -0.0007773400
  -0.0001243100    0.0000581300   -0.0009594400
  -0.0002657100   -0.0002640100   -0.0011646300
  -0.0004167900   -0.0004386600   -0.0025624700
  -0.0005252400   -0.0003481100   -0.0016967900
   0.0001478200    0.0000612700   -0.0012547000
  -0.0002923700   -0.0004695100   -0.0016661100
  -0.0004832100   -0.0004757900   -0.0015197300
  -0.0001064800   -0.0002113700   -0.0013432300
   0.0001298400    0.0002077700   -0.0012647700
  -0.0002404800   -0.0001099500   -0.0013721600
  -0.0001032400   -0.0001033100   -0.0012948300
  -0.0001146700   -0.0001238100   -0.0020955700
  -0.0001730700   -0.0001482600   -0.0015455000
  -0.0002946600   -0.0001795800   -0.0015807600
  -0.0001290600   -0.0001543800   -0.0015383400
  -0.0002128700   -0.0002086700   -0.0014536400
  -0.0002200500   -0.0001556700   -0.0014706800
  -0.0001634300   -0.0002831100   -0.0015783100
  -0.0001657800   -0.0002209100   -0.0014756500
  -0.0002517400   -0.0002516000   -0.0014765900
   0.0004552300    0.0007298300   -0.0072171900
   0.0000848800    0.0002952200   -0.0010257700
  -0.0010368000   -0.0004112400   -0.0017016200
   0.0003318300    0.0001252300   -0.0010352000
  -0.0001934400   -0.0001859600   -0.0012074200
  -0.0002909800   -0.0000208900   -0.0013463000
  -0.0003584000   -0.0009852000   -0.0016538500
  -0.0000418900   -0.0002712700   -0.0013262200
  -0.0004828000   -0.0004856700   -0.0014212600
  -0.0017059300    0.0006435700   -0.0002785900
  -0.0003239300   -0.0001806600   -0.0008311800
   0.0715347700    0.0389494800    0.0876425200
  -0.0008567100   -0.0008554900   -0.0009201600
  -0.0000820200   -0.0000115600   -0.0009607900
   0.0008070000   -0.0014393700   -0.0003367000
  -0.0000443800   -0.0000328400   -0.0009561500
  -0.0000698800   -0.0000582800   -0.0011000200
  -0.0000184000   -0.0001743900   -0.0008765600
  -0.0000989500    0.0002021100   -0.0016127200
   0.0001628400    0.0002397600   -0.0013042700
   0.0012449000    0.0012234900   -0.0036105400
  -0.0003141600   -0.0003143300   -0.0013960900
   0.0000998900    0.0000740700   -0.0013331400
   0.0002705400   -0.0000391700   -0.0016023600
   0.0000777700    0.0001291200   -0.0013620200
   0.0000851600    0.0000926500   -0.0012835400
   0.0002956200    0.0002188000   -0.0013347300
   0.0003125600    0.0002740000   -0.0016191600
   0.0000755500    0.0001663300   -0.0015128100
   0.0003408100    0.0003317300   -0.0021730500
   0.0001636400    0.0001636700   -0.0014659200
   0.0000900900    0.0001889000   -0.0014587900
   0.0002898100    0.0003238100   -0.0016213900
   0.0001898300    0.0001001600   -0.0014635300
   0.0000790500    0.0000832300   -0.0013999300
   0.0001854700    0.0000942700   -0.0015199500
   0.0008512400    0.0005815800   -0.0014425200
  -0.0003351100   -0.0001259800   -0.0012596800
   0.0001400800    0.0004189500   -0.0043469700
   0.0000798100    0.0000766400   -0.0010819900
  -0.0000830500    0.0002624300   -0.0013277800
   0.0006344400    0.0009031600   -0.0014909700
   0.0002430000   -0.0000618100   -0.0013077600
  -0.0000840600   -0.0000764700   -0.0012416200
  -0.0000892700   -0.0002945700   -0.0012509100
  -0.0005506600    0.0025339400    0.0042683100
  -0.0006214200    0.0004295000    0.0015960100
  -0.0066235800    0.0071684600    0.0006273600
   0.0000035600   -0.0001191600    0.0014227200
  -0.0002633600    0.0001698400    0.0014110300
   0.0000042500    0.0001070600    0.0014595800
   0.0023983900   -0.0023612800    0.0022683500
  -0.0003667700    0.0001976000    0.0014705200
  -0.0014924300   -0.0005918600    0.0021384000
  -0.0016980200   -0.0014762800    0.0000691700
  -0.0003918800    0.0002852700    0.0014278500
   0.0036542100   -0.0010371900    0.0000142500
  -0.0000948800   -0.0002542500    0.0012434200
  -0.0002112900    0.0000847300    0.0013541600
   0.0001320200   -0.0001938400    0.0012901400
  -0.0014624700    0.0015425000    0.0018669800
  -0.0003759700    0.0003145100    0.0014409700
  -0.0004882900    0.0000525800    0.0017961500
  -0.0001346700   -0.0000215800    0.0006814100
  -0.0001780500    0.0001278700    0.0011385300
   0.0002203600   -0.0000926700    0.0007789200
  -0.0000559500   -0.0000490700    0.0010819600
  -0.0001364600    0.0000633500    0.0011821200
   0.0000315600   -0.0000392900    0.0010952000
  -0.0001352100    0.0001961300    0.0008894400
  -0.0001786800    0.0001612000    0.0011766900
   0.0000948400    0.0001332700    0.0010055100
   0.0000728500    0.0001451500    0.0010417600
  -0.0002908300    0.0002396000    0.0012367800
  -0.0003850100    0.0004533600    0.0007813700
   0.0000009000    0.0000114100    0.0011834800
  -0.0001698900    0.0001219100    0.0012317100
  -0.0000807200    0.0001072200    0.0011708700
   0.0003871800   -0.0003619200    0.0006408200
  -0.0001658400    0.0000841000    0.0011904100
   0.0000017300   -0.0001735200    0.0007858000
   0.0088918400   -0.0083374900    0.0010782500
   0.0000493800    0.0000165700    0.0014549200
  -0.0005310500   -0.0016464000    0.0021164300
   0.0026937600   -0.0006124000    0.0042492400
  -0.0001548900    0.0000174100    0.0014129300
  -0.0024037100    0.0024412400    0.0016509600
   0.0004179100   -0.0005641700    0.0015913000
   0.0001320600   -0.0002255500    0.0014036600
   0.0001831800   -0.0003307900    0.0014605000
  -0.0012751500    0.0038974300   -0.0001891100
  -0.0002600900    0.0001345000    0.0012700900
   0.0002942700   -0.0000107800    0.0014986800
  -0.0019396400   -0.0019379800   -0.0002202800
  -0.0002876700   -0.0000851000    0.0012389500
   0.0013004400   -0.0012207600    0.0019260800
   0.0002835100   -0.0003260400    0.0014084100
   0.0000418100   -0.0001682900    0.0013419900
   0.0003041800   -0.0003425500    0.0014366300
  -0.0000733600    0.0002012500    0.0007399500
  -0.0000613500    0.0000303700    0.0010868000
   0.0001479000    0.0000714100    0.0010145400
   0.0000022300   -0.0001496300    0.0006905100
  -0.0000648500   -0.0000548300    0.0010825800
   0.0001982400   -0.0001374900    0.0009423300
   0.0001289700   -0.0001557400    0.0011300200
   0.0000414300   -0.0001145800    0.0011743100
   0.0001595600   -0.0001624800    0.0011770500
   0.0004801400   -0.0004116700    0.0008137800
   0.0000927000   -0.0000799300    0.0011710600
  -0.0001598800   -0.0000174000    0.0007909900
   0.0001646200    0.0000588500    0.0010472400
  -0.0000012100    0.0000048300    0.0011790800
  -0.0003693900    0.0003945800    0.0006163200
   0.0002388500   -0.0002762100    0.0012368800
   0.0001040300   -0.0001521000    0.0012272400
   0.0000798600   -0.0001530800    0.0011858000
   0.0011039500    0.0018730100   -0.0014253700
  -0.0006595400    0.0007786200   -0.0014542200
  -0.0032444000    0.0005492900   -0.0030492200
  -0.0007377900    0.0009145100   -0.0014614800
  -0.0007157400    0.0008029400   -0.0014074200
  -0.0008371300    0.0008700900   -0.0014625900
  -0.0009432300    0.0007626500   -0.0022253800
  -0.0007369200    0.0007917000   -0.0014459800
  -0.0007749400    0.0007553000   -0.0016026900
  -0.0005178900    0.0006705600   -0.0006844100
  -0.0007243200    0.0007691400   -0.0012495000
  -0.0008858200    0.0007808100   -0.0010302600
  -0.0007368700    0.0008180900   -0.0012460700
  -0.0007389100    0.0007933700   -0.0012904900
  -0.0008073600    0.0008157400   -0.0012758300
  -0.0006716600    0.0006126400   -0.0009708900
  -0.0007397800    0.0007511700   -0.0012767000
  -0.0008532100    0.0006637800   -0.0012915300
  -0.0007744200    0.0006785700   -0.0010509600
  -0.0007354800    0.0007560800   -0.0012060100
  -0.0007625300    0.0007276000   -0.0009612300
  -0.0007558600    0.0007599100   -0.0012254300
  -0.0007420800    0.0007714000   -0.0012515200
  -0.0007615500    0.0007610500   -0.0012154500
  -0.0007143900    0.0006951500   -0.0010451200
  -0.0007330900    0.0007639600   -0.0012172400
  -0.0006961100    0.0007615700   -0.0010679800
  -0.0012721600    0.0006753800   -0.0017268900
  -0.0006846900    0.0007671500   -0.0013625600
  -0.0012230600    0.0012218700   -0.0003157300
  -0.0007740400    0.0008060700   -0.0014093900
  -0.0007271100    0.0007807000   -0.0013540300
  -0.0007606500    0.0007331900   -0.0013666400
  -0.0010165600    0.0009225700   -0.0009182700
  -0.0007238100    0.0008050900   -0.0013499500
  -0.0005571500    0.0011293600   -0.0010892100
   0.0015512100   -0.0042522200   -0.0021711300
   0.0009023600   -0.0008299400   -0.0014642300
   0.0005624500   -0.0009235200   -0.0016725400
   0.0020159100    0.0012923200   -0.0014948700
   0.0009279600   -0.0007288700   -0.0014605500
   0.0008259500   -0.0010060400   -0.0023118300
   0.0007711500   -0.0006917200   -0.0014557500
   0.0008109300   -0.0007237700   -0.0014084500
   0.0007830200   -0.0007503000   -0.0014449400
   0.0007524300   -0.0008575500   -0.0009465100
   0.0008271000   -0.0008016600   -0.0012707100
   0.0006623900   -0.0008459900   -0.0012921700
   0.0006632400   -0.0005163900   -0.0006850900
   0.0008265500   -0.0007336800   -0.0012509500
   0.0006387100   -0.0006976300   -0.0010601100
   0.0007633600   -0.0007357100   -0.0012445900
   0.0007990700   -0.0007446000   -0.0012904200
   0.0007480800   -0.0007482400   -0.0012817100
   0.0007261500   -0.0007611500   -0.0009574800
   0.0007653200   -0.0007582300   -0.0012157900
   0.0007615100   -0.0006943400   -0.0010667200
   0.0006767900   -0.0007743300   -0.0010497700
   0.0007637700   -0.0007538400   -0.0012261500
   0.0006956400   -0.0007148500   -0.0010474500
   0.0007527400   -0.0007397900   -0.0012065000
   0.0007733300   -0.0007440000   -0.0012524000
   0.0007620200   -0.0007369600   -0.0012180100
   0.0012020600   -0.0012031200   -0.0003484400
   0.0007447700   -0.0007527200   -0.0013750300
   0.0011310300   -0.0005476500   -0.0010741400
   0.0006663400   -0.0012737200   -0.0017114900
   0.0008137700   -0.0007684000   -0.0014064500
   0.0008749800   -0.0009687300   -0.0008771100
   0.0007591400   -0.0006963300   -0.0013709000
   0.0007838400   -0.0007302600   -0.0013562600
   0.0007995300   -0.0007314800   -0.0013469700
   0.0073423500    0.0042886900   -0.0069835200
  -0.0003548400   -0.0005354800    0.0008763100
  -0.0000830100   -0.0005443600    0.0005152700
  -0.0005736500   -0.0004024800    0.0009048100
  -0.0005386500   -0.0005459300    0.0009187200
  -0.0007159000   -0.0006922500    0.0009943100
  -0.0005723000   -0.0003956400    0.0005717800
  -0.0006525800   -0.0007040800    0.0009844300
  -0.0004717500   -0.0004704700    0.0008914600
  -0.0008556100   -0.0008449800    0.0015269700
  -0.0005304500   -0.0006367700    0.0010169600
  -0.0010297200   -0.0009324600    0.0012030000
  -0.0006593300   -0.0005536400    0.0010295900
  -0.0006087300   -0.0006137900    0.0009934900
  -0.0007391600   -0.0006709500    0.0010496900
  -0.0010207100   -0.0011133200    0.0012601100
  -0.0006503600   -0.0007327500    0.0010479300
  -0.0007529300   -0.0007536500    0.0010648300
  -0.0009595300   -0.0009557400    0.0011730600
  -0.0007297600   -0.0007598400    0.0011043000
  -0.0007797000   -0.0008145300    0.0011729300
  -0.0007699200   -0.0007409900    0.0011076000
  -0.0007025100   -0.0007051000    0.0010768900
  -0.0007498600   -0.0007471300    0.0010941500
  -0.0008259500   -0.0007888700    0.0011791600
  -0.0007396000   -0.0007464400    0.0010935900
  -0.0007321600   -0.0007314000    0.0011301900
  -0.0022710100   -0.0022091400    0.0006055800
  -0.0006887900   -0.0007459000    0.0011001400
  -0.0004023400   -0.0007715800    0.0012256000
  -0.0007641400   -0.0007101600    0.0011050600
  -0.0006565900   -0.0006606400    0.0010432100
  -0.0007307200   -0.0007763900    0.0010640300
  -0.0007803100   -0.0004041300    0.0012134600
  -0.0007582800   -0.0007218900    0.0010584900
  -0.0004852200   -0.0004809500    0.0010185900
   0.0006199000   -0.0007370800    0.0002704400
   0.0008482600    0.0007433600    0.0010538100
   0.0149470000    0.0115748500   -0.0204962900
   0.0014981100    0.0014996800    0.0013321800
   0.0008363500    0.0007266300    0.0010304800
  -0.0007613600    0.0003061900    0.0002145000
   0.0007144400    0.0007965100    0.0010204700
   0.0007648500    0.0007575400    0.0010558500
   0.0007057200    0.0008010400    0.0010256500
   0.0009901800    0.0007599900    0.0012339300
   0.0007580100    0.0007042400    0.0010421700
   0.0001786500    0.0001889900    0.0007966800
   0.0013290800    0.0013285200    0.0014669100
   0.0007674700    0.0007679200    0.0010830300
   0.0006720100    0.0009067500    0.0011767800
   0.0007612800    0.0007467300    0.0010811600
   0.0007600100    0.0007549200    0.0010670600
   0.0006816500    0.0007347500    0.0010294000
   0.0007379900    0.0007517300    0.0011683900
   0.0007982200    0.0007752200    0.0011046600
   0.0008217900    0.0008255400    0.0011129100
   0.0007939700    0.0007947800    0.0011678700
   0.0007933500    0.0007676200    0.0011075200
   0.0007403100    0.0007288500    0.0011621300
   0.0007640700    0.0007857300    0.0011069300
   0.0007774600    0.0007748700    0.0010975900
   0.0007649800    0.0007868200    0.0011012200
   0.0002690000    0.0006006600    0.0011784900
   0.0008776900    0.0008238200    0.0011286600
   0.0017692600    0.0018312400    0.0011482100
   0.0005547100    0.0005590900    0.0008662400
   0.0008447500    0.0007417100    0.0010744600
   0.0005921500    0.0002673700    0.0011906100
   0.0007327800    0.0008265900    0.0010689700
   0.0007856000    0.0007815200    0.0010949600
   0.0008056700    0.0008563700    0.0011237500
  -0.0113375300    0.0102551100    0.0041498500
   0.0009629100   -0.0010430100   -0.0012823400
   0.0014697500   -0.0006955000   -0.0012497700
   0.0003342600   -0.0006710000   -0.0012806900
   0.0009367100   -0.0008208500   -0.0011863500
   0.0011708900   -0.0011857200   -0.0016057200
   0.0006304600   -0.0005143700   -0.0010430900
   0.0007030000   -0.0006631300   -0.0010682200
   0.0007663600   -0.0006768500   -0.0010805700
   0.0003246400   -0.0025271300    0.0004358200
   0.0010174000   -0.0009397100   -0.0011346900
   0.0007069900   -0.0007764800   -0.0011327900
   0.0000487600    0.0003998500   -0.0007012600
   0.0009005500   -0.0006860000   -0.0010572800
   0.0005294400   -0.0005919300   -0.0008269600
   0.0006499900   -0.0006800500   -0.0010632400
   0.0007840700   -0.0007454600   -0.0010958000
   0.0007042100   -0.0006861200   -0.0010484800
   0.0006061100   -0.0006597400   -0.0008555000
   0.0007504100   -0.0007342100   -0.0009901600
   0.0006551800   -0.0006865500   -0.0009826200
   0.0005513400   -0.0005386400   -0.0009656800
   0.0007361700   -0.0006870800   -0.0010016800
   0.0006357900   -0.0006402700   -0.0009969500
   0.0006316000   -0.0006417800   -0.0009790000
   0.0007069300   -0.0006868200   -0.0010129500
   0.0006752500   -0.0006694400   -0.0010087500
   0.0000389700   -0.0000797500   -0.0005378600
   0.0006820100   -0.0007099600   -0.0010189200
   0.0008433400   -0.0007110900   -0.0010080300
   0.0006546200   -0.0008110700   -0.0010384100
   0.0007584900   -0.0007658700   -0.0010748700
   0.0008546700   -0.0008610000   -0.0010949100
   0.0005780400   -0.0005434900   -0.0009528900
   0.0006659000   -0.0006455500   -0.0010108600
   0.0007144300   -0.0006610600   -0.0010244100
  -0.0006439300    0.0004095100   -0.0013130500
  -0.0004659900    0.0006129000   -0.0010235800
   0.0095818100   -0.0106334200    0.0073480000
  -0.0008185600    0.0009255300   -0.0011820600
  -0.0006335400    0.0006734700   -0.0010519300
  -0.0010247700    0.0009139400   -0.0012624100
  -0.0010829300    0.0010677300   -0.0016284200
  -0.0006655300    0.0007638000   -0.0010762000
  -0.0007691500    0.0014438700   -0.0012810700
   0.0003475200    0.0001198900   -0.0007010200
  -0.0006525300    0.0006559100   -0.0010701800
  -0.0026531100    0.0004532900    0.0000325400
  -0.0006785600    0.0008911900   -0.0010522600
  -0.0007197600    0.0007584200   -0.0010865500
  -0.0009456200    0.0009899000   -0.0011418600
  -0.0005041400    0.0004415400   -0.0007769800
  -0.0006765100    0.0006963600   -0.0010432900
  -0.0008479700    0.0007605500   -0.0011327900
  -0.0005424700    0.0005616200   -0.0009656400
  -0.0006342900    0.0006334700   -0.0009808400
  -0.0006850500    0.0006314500   -0.0008569200
  -0.0006840200    0.0007302300   -0.0010001100
  -0.0006765100    0.0006966500   -0.0010115700
  -0.0007360300    0.0007428800   -0.0009920000
  -0.0006243500    0.0006198400   -0.0009978600
  -0.0006634100    0.0006720500   -0.0010071300
  -0.0006967100    0.0006588500   -0.0009825600
  -0.0008205300    0.0006687500   -0.0010455800
  -0.0005314400    0.0005738100   -0.0009475500
  -0.0000975600    0.0000567400   -0.0005407000
  -0.0007636000    0.0007530600   -0.0010733700
  -0.0006323100    0.0006526800   -0.0010039200
  -0.0007055900    0.0006698800   -0.0010134900
  -0.0008563300    0.0008499400   -0.0010992300
  -0.0006555200    0.0007120300   -0.0010228800
  -0.0007250300    0.0008526000   -0.0010150800
  -0.0033645000   -0.0040629900    0.0113788000
  -0.0006208700   -0.0007733300    0.0009909100
  -0.0003034000   -0.0007742500    0.0012734800
  -0.0007878600   -0.0006384000    0.0010203700
  -0.0007034900   -0.0007080200    0.0011456400
  -0.0006729700   -0.0008870400    0.0012654400
  -0.0007854700   -0.0003266100    0.0012317000
  -0.0008642400   -0.0006824800    0.0012510700
  -0.0006586000   -0.0006567200    0.0012593600
   0.0131163300    0.0091879000    0.0167948500
  -0.0004858800   -0.0008727900    0.0013215600
  -0.0009075600   -0.0008766500    0.0010312700
  -0.0008846200   -0.0004876400    0.0012998300
  -0.0007091500   -0.0007150200    0.0013069900
  -0.0007875000   -0.0006995700    0.0012077900
  -0.0009060700   -0.0009288500    0.0010804800
  -0.0006719100   -0.0008062300    0.0012151600
  -0.0007667900   -0.0007751500    0.0012137000
  -0.0008627300   -0.0008497500    0.0019721500
  -0.0007474600   -0.0008449500    0.0015462800
  -0.0007875400   -0.0007721300    0.0014708900
  -0.0008461400   -0.0007481100    0.0015399300
  -0.0007716700   -0.0007751700    0.0014587000
  -0.0007947900   -0.0007562100    0.0014194300
  -0.0007734200   -0.0007851600    0.0014873400
  -0.0007506300   -0.0008016600    0.0014302800
  -0.0007770300   -0.0007775800    0.0013901500
  -0.0010254700   -0.0010200900    0.0022011200
  -0.0007958900   -0.0008002700    0.0014455300
  -0.0007016200   -0.0008034400    0.0015190000
  -0.0008043500   -0.0007996700    0.0014529300
  -0.0007646700   -0.0007670900    0.0013620200
  -0.0007501600   -0.0008148800    0.0014269400
  -0.0008052100   -0.0007012900    0.0015131300
  -0.0008095300   -0.0007515900    0.0014219500
  -0.0007279500   -0.0007286300    0.0014226700
   0.0004071800    0.0005106700    0.0009529100
   0.0009037600    0.0007264300    0.0012632100
   0.0025851000    0.0018744000    0.0082871600
   0.0008209200    0.0008229900    0.0011053000
   0.0009219100    0.0006689100    0.0012662400
   0.0004998300    0.0003838300    0.0009956200
   0.0006783100    0.0008990500    0.0012517700
   0.0007837100    0.0007790900    0.0012711300
   0.0007120800    0.0008863500    0.0012344200
   0.0014167700    0.0004211500    0.0014498800
   0.0007832100    0.0007011800    0.0011388800
  -0.0158970700   -0.0199042100    0.0086280000
   0.0009614900    0.0009534800    0.0013468300
   0.0007437600    0.0007705200    0.0012059300
   0.0003925100    0.0013945100    0.0013993900
   0.0007891500    0.0007160700    0.0012132900
   0.0007689300    0.0007629600    0.0012485300
   0.0006892400    0.0007815500    0.0011599800
   0.0008412700    0.0007326300    0.0015904200
   0.0007919700    0.0007638600    0.0014419600
   0.0009891800    0.0010023000    0.0018104600
   0.0007732200    0.0007727300    0.0015287000
   0.0007745800    0.0007898000    0.0014227700
   0.0007313200    0.0008436500    0.0015739100
   0.0007966500    0.0007689900    0.0014335400
   0.0007810500    0.0007775100    0.0013914300
   0.0007626500    0.0007912700    0.0014483300
   0.0007077900    0.0007523300    0.0014605200
   0.0008530200    0.0007827900    0.0015048100
   0.0009912800    0.0009966800    0.0022043400
   0.0007353200    0.0007346800    0.0013783700
   0.0008299600    0.0007504800    0.0014287200
   0.0007505700    0.0007081300    0.0014665300
   0.0007518800    0.0008245900    0.0014236700
   0.0007940900    0.0007916400    0.0014149100
   0.0007787000    0.0008492000    0.0014976700

1    
 -0.0066146109591891   0.0000000000000000  -0.0074997947877642
   0.3000918700    0.1671753400    0.5929454800
  -0.0014019400   -0.0009693700    0.0040748700
  -0.0004960100   -0.0003366300    0.0032842300
  -0.0006683500   -0.0011069100    0.0039588200
  -0.0010530700   -0.0010530600    0.0032316000
  -0.0000505400   -0.0000186300    0.0032930800
  -0.0000320300   -0.0001964300    0.0034031800
  -0.0000488300   -0.0000214500    0.0032881500
  -0.0002188400   -0.0002188700    0.0025015100
  -0.0004368500   -0.0004124500   -0.0033579500
  -0.0003654000   -0.0002149800    0.0009625600
   0.0002308200    0.0002335900    0.0023758500
  -0.0001378400   -0.0002896300    0.0009772900
  -0.0005365000   -0.0005337900    0.0019389100
  -0.0000225200   -0.0000693700    0.0020132400
   0.0003104600    0.0003062800    0.0023609800
  -0.0000780700   -0.0000140400    0.0018915400
  -0.0000090900   -0.0000064500    0.0022003500
   0.0001611200    0.0001563400    0.0001577200
   0.0001156500    0.0001266500    0.0012265300
  -0.0001272600   -0.0000925200    0.0014385500
   0.0001511400    0.0001391300    0.0012354300
  -0.0000167800   -0.0000155400    0.0015993100
  -0.0000496800   -0.0000191200    0.0016104600
  -0.0000683000   -0.0001040900    0.0014307300
  -0.0000214800   -0.0000471600    0.0015888500
  -0.0001388600   -0.0001376400    0.0017070100
  -0.0004208000   -0.0003956300   -0.0033716500
   0.0007366500    0.0007943400    0.0019328000
  -0.0008759200   -0.0007813700    0.0014068200
   0.0008759100    0.0008166800    0.0018684500
  -0.0001243700   -0.0001216200    0.0023023600
  -0.0001180400    0.0000262800    0.0019266100
  -0.0006997100   -0.0007958800    0.0014740100
   0.0000171800   -0.0001093200    0.0019759800
  -0.0004222300   -0.0004195200    0.0018378300
   0.0051535200   -0.0048167400    0.0073408600
  -0.0001795700    0.0001400600   -0.0016741800
  -0.0013706600   -0.0017188900    0.0016062600
   0.0015019300    0.0011602300    0.0105392500
  -0.0005284700    0.0004542200   -0.0013661300
  -0.0050456400    0.0053825600    0.0048387600
   0.0004143700   -0.0004700900   -0.0013836000
  -0.0000544400    0.0000006500   -0.0016509500
   0.0001009900   -0.0001218500   -0.0016573000