   6
   1   1
    50.304084406679998    -3.004597532020000     2.553980965130000
    -3.004597532020000    52.541311880359999     3.894199213400000
     2.553980965130000     3.894199213400000    44.381264647489992
   1   2
    -7.767309524246005     8.240798188842600     0.626065066757004
     8.828229175953673   -25.750093336811052    -2.128391673599547
     0.286263101275642    -1.168098404952429    -4.262123384726562
   1   3
    -7.569207797188491    -3.775217374616934    -6.603596671423278
    -3.958872689137129    -9.883722598449323    -8.744700526802211
    -6.741144737212305    -9.024880200267457   -18.902987793426853
   1   4
   -27.329370403238062     0.123085468484243    -1.032462844961679
     0.026347449814519    -4.623981895858366    -0.054864074352039
    -0.731367495996279    -0.233665934075409    -4.406224479180701
   1   5
     0.149168001034300     0.838699779262175    -0.962237728097648
    -1.681611306352474    -1.725657752454566     3.657560318728760
     0.498064488869253    -0.450888629602711    -0.692989530764839
   1   6
    -7.786352722655425    -2.423758273363198     5.418011093092796
    -0.209373360561836   -10.557737343504904     3.376271139598357
     4.133956003228941     6.984066105579935   -16.115886619691381
   2   1
    -7.767309524246005     8.828229175953673     0.286263101275642
     8.240798188842600   -25.750093336811052    -1.168098404952429
     0.626065066757004    -2.128391673599547    -4.262123384726562
   2   2
     7.808000170000000    -8.843833130000000    -0.768471540000000
    -8.843833130000000    28.359502719999998     0.495076120000000
    -0.768471540000000     0.495076120000000     5.180111230000000
   2   3
     0.407627300000000    -1.093859510000000    -0.122366290000000
     0.568038620000000    -1.138612620000000    -0.150188770000000
     0.901477650000000    -2.176457950000000     0.016094610000000
   2   4
    -0.962982680000000     2.739872350000000     0.206193030000000
    -0.040507010000000     0.173893300000000    -0.109495720000000
    -0.170828890000000     0.089039820000000     0.074219430000000
   2   5
    -0.026081570000000    -0.252202830000000     0.229784220000000
    -0.150355660000000     0.053387090000000     0.227399280000000
     0.171204970000000     0.395850560000000    -0.481477740000000
   2   6
     0.541355560000000    -1.378873560000000     0.168285920000000
     0.225841720000000    -1.698069960000000     0.704987840000000
    -0.759669760000000     3.324896200000000    -0.526024360000000
   3   1
    -7.569207797188491    -3.958872689137129    -6.741144737212305
    -3.775217374616934    -9.883722598449323    -9.024880200267457
    -6.603596671423278    -8.744700526802211   -18.902987793426853
   3   2
     0.407627300000000     0.568038620000000     0.901477650000000
    -1.093859510000000    -1.138612620000000    -2.176457950000000
    -0.122366290000000    -0.150188770000000     0.016094610000000
   3   3
     7.500557400000000     4.296715860000000     6.829942800000000
     4.296715860000000     9.938799830000001     9.174552179999999
     6.829942800000000     9.174552179999999    22.052550889999999
   3   4
    -0.985001680000000    -1.478106920000000    -2.351364330000000
     0.146690370000000     0.077988800000000     0.002862650000000
    -0.129815270000000    -0.205987930000000     0.105042010000000
   3   5
     0.013487410000000     0.084550300000000    -0.094304780000000
     0.072861990000000     0.178468310000000     0.045254530000000
     0.063949700000000    -0.099588700000000     0.040713240000000
   3   6
     0.632605320000000     0.488120880000000     1.455326360000000
     0.352827040000000     0.826854560000000     1.978615160000000
    -0.038250040000000     0.026239600000000    -3.310624640000000
   4   1
   -27.329370403238062     0.026347449814519    -0.731367495996279
     0.123085468484243    -4.623981895858366    -0.233665934075409
    -1.032462844961679    -0.054864074352039    -4.406224479180701
   4   2
    -0.962982680000000    -0.040507010000000    -0.170828890000000
     2.739872350000000     0.173893300000000     0.089039820000000
     0.206193030000000    -0.109495720000000     0.074219430000000
   4   3
    -0.985001680000000     0.146690370000000    -0.129815270000000
    -1.478106920000000     0.077988800000000    -0.205987930000000
    -2.351364330000000     0.002862650000000     0.105042010000000
   4   4
    29.876971579999999     0.529601590000000    -0.129390600000000
     0.529601590000000     4.478144520000000    -0.438846130000000
    -0.129390600000000    -0.438846130000000     5.143885180000000
   4   5
     0.064692010000000     0.023681940000000     0.071909030000000
    -0.133924420000000     0.076881570000000    -0.034037710000000
     0.011477510000000    -0.166821400000000     0.092134160000000
   4   6
    -0.663435240000000    -0.685352320000000     1.089173840000000
    -1.780635320000000    -0.180834560000000     0.823065400000000
     3.295340880000000     0.766465480000000    -1.007957720000000
   5   1
     0.149168001034300    -1.681611306352474     0.498064488869253
     0.838699779262175    -1.725657752454566    -0.450888629602711
    -0.962237728097648     3.657560318728760    -0.692989530764839
   5   2
    -0.026081570000000    -0.150355660000000     0.171204970000000
    -0.252202830000000     0.053387090000000     0.395850560000000
     0.229784220000000     0.227399280000000    -0.481477740000000
   5   3
     0.013487410000000     0.072861990000000     0.063949700000000
     0.084550300000000     0.178468310000000    -0.099588700000000
    -0.094304780000000     0.045254530000000     0.040713240000000
   5   4
     0.064692010000000    -0.133924420000000     0.011477510000000
     0.023681940000000     0.076881570000000    -0.166821400000000
     0.071909030000000    -0.034037710000000     0.092134160000000
   5   5
     6.353460490000000   -14.502526250000001    -1.584150370000000
   -14.502526250000001    43.902077960000000    -1.665810680000000
    -1.584150370000000    -1.665810680000000     3.775680520000000
   5   6
    -6.554326120000000    16.395804720000001     0.839195160000000
    13.807768240000000   -42.486296639999999     1.987000840000000
     2.338778000000000    -2.230683680000000    -2.733236760000000
   6   1
    -7.786352722655425    -0.209373360561836     4.133956003228941
    -2.423758273363198   -10.557737343504904     6.984066105579935
     5.418011093092796     3.376271139598357   -16.115886619691381
   6   2
     0.541355560000000     0.225841720000000    -0.759669760000000
    -1.378873560000000    -1.698069960000000     3.324896200000000
     0.168285920000000     0.704987840000000    -0.526024360000000
   6   3
     0.632605320000000     0.352827040000000    -0.038250040000000
     0.488120880000000     0.826854560000000     0.026239600000000
     1.455326360000000     1.978615160000000    -3.310624640000000
   6   4
    -0.663435240000000    -1.780635320000000     3.295340880000000
    -0.685352320000000    -0.180834560000000     0.766465480000000
     1.089173840000000     0.823065400000000    -1.007957720000000
   6   5
    -6.554326120000000    13.807768240000000     2.338778000000000
    16.395804720000001   -42.486296639999999    -2.230683680000000
     0.839195160000000     1.987000840000000    -2.733236760000000
   6   6
    13.827190079999999   -12.395928160000000    -8.968958400000000
   -12.395928160000000    54.095229279999998    -8.869994240000000
    -8.968958400000000    -8.869994240000000    23.689166719999999
