phonopy:
  version: 1.11.10
  nac_unit_conversion_factor: 14.399652
  configuration:
    eigenvectors: ".true."
    dim: "1 1 1"
    symmetry: ".false."
    nac: ".true."
    force_constants: "read"
    fc_symmetry: "1"
    mp: "1 1 1"
    dos: ".true."
    frequency_conversion_factor: "521.47"

supercell_matrix:
- [   1,   0,   0 ]
- [   0,   1,   0 ]
- [   0,   0,   1 ]

primitive_cell:
  lattice:
  - [    25.000000000000000,     0.000000000000000,     0.000000000000000 ] # a
  - [     0.000000000000000,    25.000000000000000,     0.000000000000000 ] # b
  - [     0.000000000000000,     0.000000000000000,    25.000000000000000 ] # c
  points:
  - symbol: C  # 1
    coordinates: [  0.933495199379486,  0.010803430275906,  0.999838631487997 ]
    mass: 12.010700
  - symbol: H  # 2
    coordinates: [  0.948631907320501,  0.969615859355618,  0.998905843857005 ]
    mass: 1.007940
  - symbol: H  # 3
    coordinates: [  0.948042782696361,  0.030116310513461,  0.036798149784267 ]
    mass: 1.007940
  - symbol: H  # 4
    coordinates: [  0.889365231106311,  0.009364942640558,  0.000869012102205 ]
    mass: 1.007940
  - symbol: H  # 5
    coordinates: [  0.940406004581377,  0.073186049770150,  0.952414994625420 ]
    mass: 1.007940
  - symbol: O  # 6
    coordinates: [  0.953287717715948,  0.036520904644307,  0.952660094543100 ]
    mass: 15.999400
  reciprocal_lattice: # without 2pi
  - [     0.040000000000000,     0.000000000000000,     0.000000000000000 ] # a*
  - [     0.000000000000000,     0.040000000000000,     0.000000000000000 ] # b*
  - [     0.000000000000000,     0.000000000000000,     0.040000000000000 ] # c*

unit_cell:
  lattice:
  - [    25.000000000000000,     0.000000000000000,     0.000000000000000 ] # a
  - [     0.000000000000000,    25.000000000000000,     0.000000000000000 ] # b
  - [     0.000000000000000,     0.000000000000000,    25.000000000000000 ] # c
  points:
  - symbol: C  # 1
    coordinates: [  0.933495199379486,  0.010803430275906,  0.999838631487997 ]
    mass: 12.010700
    reduced_to: 1
  - symbol: H  # 2
    coordinates: [  0.948631907320501,  0.969615859355618,  0.998905843857005 ]
    mass: 1.007940
    reduced_to: 2
  - symbol: H  # 3
    coordinates: [  0.948042782696361,  0.030116310513461,  0.036798149784267 ]
    mass: 1.007940
    reduced_to: 3
  - symbol: H  # 4
    coordinates: [  0.889365231106311,  0.009364942640558,  0.000869012102205 ]
    mass: 1.007940
    reduced_to: 4
  - symbol: H  # 5
    coordinates: [  0.940406004581377,  0.073186049770150,  0.952414994625420 ]
    mass: 1.007940
    reduced_to: 5
  - symbol: O  # 6
    coordinates: [  0.953287717715948,  0.036520904644307,  0.952660094543100 ]
    mass: 15.999400
    reduced_to: 6

supercell:
  lattice:
  - [    25.000000000000000,     0.000000000000000,     0.000000000000000 ] # a
  - [     0.000000000000000,    25.000000000000000,     0.000000000000000 ] # b
  - [     0.000000000000000,     0.000000000000000,    25.000000000000000 ] # c
  points:
  - symbol: C  # 1
    coordinates: [  0.933495199379486,  0.010803430275906,  0.999838631487997 ]
    mass: 12.010700
    reduced_to: 1
  - symbol: H  # 2
    coordinates: [  0.948631907320501,  0.969615859355618,  0.998905843857005 ]
    mass: 1.007940
    reduced_to: 2
  - symbol: H  # 3
    coordinates: [  0.948042782696361,  0.030116310513461,  0.036798149784267 ]
    mass: 1.007940
    reduced_to: 3
  - symbol: H  # 4
    coordinates: [  0.889365231106311,  0.009364942640558,  0.000869012102205 ]
    mass: 1.007940
    reduced_to: 4
  - symbol: H  # 5
    coordinates: [  0.940406004581377,  0.073186049770150,  0.952414994625420 ]
    mass: 1.007940
    reduced_to: 5
  - symbol: O  # 6
    coordinates: [  0.953287717715948,  0.036520904644307,  0.952660094543100 ]
    mass: 15.999400
    reduced_to: 6

born_effective_charge:
- # 1 (C)
  - [  0.355710000000000,  0.116140000000000, -0.110230000000000 ]
  - [  0.122620000000000,  0.358010000000000, -0.216890000000000 ]
  - [ -0.114030000000000, -0.206330000000000,  0.635140000000000 ]
- # 2 (H)
  - [  0.043070000000000,  0.040910000000000,  0.021920000000000 ]
  - [  0.069920000000000, -0.104860000000000, -0.012680000000000 ]
  - [  0.005130000000000,  0.034730000000000,  0.042450000000000 ]
- # 3 (H)
  - [  0.021100000000000, -0.042100000000000, -0.031160000000000 ]
  - [ -0.054430000000000,  0.000310000000000, -0.020490000000000 ]
  - [ -0.063010000000000, -0.089880000000000, -0.187540000000000 ]
- # 4 (H)
  - [ -0.205780000000000, -0.010310000000000,  0.004140000000000 ]
  - [ -0.051590000000000,  0.040970000000000,  0.042930000000000 ]
  - [  0.066950000000000,  0.024700000000000, -0.001190000000000 ]
- # 5 (H)
  - [  0.270060000000000,  0.078340000000000,  0.050680000000000 ]
  - [  0.073680000000000,  0.150660000000000, -0.016930000000000 ]
  - [  0.053320000000000, -0.024470000000000,  0.256140000000000 ]
- # 6 (O)
  - [ -0.483410000000000, -0.182980000000000,  0.064650000000000 ]
  - [ -0.160220000000000, -0.444340000000000,  0.224070000000000 ]
  - [  0.051620000000000,  0.261210000000000, -0.744280000000000 ]

dielectric_constant:
  - [  1.002612000000000,  0.000056000000000, -0.000099000000000 ]
  - [  0.000056000000000,  1.002742000000000, -0.000191000000000 ]
  - [ -0.000099000000000, -0.000191000000000,  1.002844000000000 ]
